version 2
run Stability-16-20130521-22:21:05-23591
attr configname Stability
attr datetime 20130521-22:21:05
attr experiment Stability
attr inifile omnetpp.ini
attr iterationvars $0=8
attr iterationvars2 "$0=8, $repetition=16"
attr measurement $0=8
attr network Network
attr processid 23591
attr repetition 16
attr replication #16
attr resultdir results
attr runnumber 16
attr seedset 16

vector 32001  Network.dyn_peer[0]  lookupHopsSig:vector  ETV
vector 32000  Network.dyn_peer[0]  lookupTimeSig:vector  ETV
vector 32003  Network.dyn_peer[1]  lookupHopsSig:vector  ETV
vector 32002  Network.dyn_peer[1]  lookupTimeSig:vector  ETV
vector 32005  Network.dyn_peer[2]  lookupHopsSig:vector  ETV
vector 32004  Network.dyn_peer[2]  lookupTimeSig:vector  ETV
vector 32007  Network.dyn_peer[3]  lookupHopsSig:vector  ETV
vector 32006  Network.dyn_peer[3]  lookupTimeSig:vector  ETV
vector 32009  Network.dyn_peer[4]  lookupHopsSig:vector  ETV
vector 32008  Network.dyn_peer[4]  lookupTimeSig:vector  ETV
vector 32011  Network.dyn_peer[5]  lookupHopsSig:vector  ETV
vector 32010  Network.dyn_peer[5]  lookupTimeSig:vector  ETV
vector 32013  Network.dyn_peer[6]  lookupHopsSig:vector  ETV
vector 32012  Network.dyn_peer[6]  lookupTimeSig:vector  ETV
vector 32015  Network.dyn_peer[7]  lookupHopsSig:vector  ETV
vector 32014  Network.dyn_peer[7]  lookupTimeSig:vector  ETV
vector 32017  Network.dyn_peer[8]  lookupHopsSig:vector  ETV
vector 32016  Network.dyn_peer[8]  lookupTimeSig:vector  ETV
vector 32019  Network.dyn_peer[9]  lookupHopsSig:vector  ETV
vector 32018  Network.dyn_peer[9]  lookupTimeSig:vector  ETV
vector 32021  Network.dyn_peer[10]  lookupHopsSig:vector  ETV
vector 32020  Network.dyn_peer[10]  lookupTimeSig:vector  ETV
vector 32023  Network.dyn_peer[11]  lookupHopsSig:vector  ETV
vector 32022  Network.dyn_peer[11]  lookupTimeSig:vector  ETV
vector 32025  Network.dyn_peer[12]  lookupHopsSig:vector  ETV
vector 32024  Network.dyn_peer[12]  lookupTimeSig:vector  ETV
vector 32027  Network.dyn_peer[13]  lookupHopsSig:vector  ETV
vector 32026  Network.dyn_peer[13]  lookupTimeSig:vector  ETV
vector 32029  Network.dyn_peer[14]  lookupHopsSig:vector  ETV
vector 32028  Network.dyn_peer[14]  lookupTimeSig:vector  ETV
vector 32031  Network.dyn_peer[15]  lookupHopsSig:vector  ETV
vector 32030  Network.dyn_peer[15]  lookupTimeSig:vector  ETV
vector 32033  Network.dyn_peer[16]  lookupHopsSig:vector  ETV
vector 32032  Network.dyn_peer[16]  lookupTimeSig:vector  ETV
vector 32035  Network.dyn_peer[17]  lookupHopsSig:vector  ETV
vector 32034  Network.dyn_peer[17]  lookupTimeSig:vector  ETV
vector 32037  Network.dyn_peer[18]  lookupHopsSig:vector  ETV
vector 32036  Network.dyn_peer[18]  lookupTimeSig:vector  ETV
vector 32039  Network.dyn_peer[19]  lookupHopsSig:vector  ETV
vector 32038  Network.dyn_peer[19]  lookupTimeSig:vector  ETV
vector 32041  Network.dyn_peer[20]  lookupHopsSig:vector  ETV
vector 32040  Network.dyn_peer[20]  lookupTimeSig:vector  ETV
vector 32043  Network.dyn_peer[21]  lookupHopsSig:vector  ETV
vector 32042  Network.dyn_peer[21]  lookupTimeSig:vector  ETV
vector 32045  Network.dyn_peer[22]  lookupHopsSig:vector  ETV
vector 32044  Network.dyn_peer[22]  lookupTimeSig:vector  ETV
vector 32047  Network.dyn_peer[23]  lookupHopsSig:vector  ETV
vector 32046  Network.dyn_peer[23]  lookupTimeSig:vector  ETV
vector 32049  Network.dyn_peer[24]  lookupHopsSig:vector  ETV
vector 32048  Network.dyn_peer[24]  lookupTimeSig:vector  ETV
vector 32051  Network.dyn_peer[25]  lookupHopsSig:vector  ETV
vector 32050  Network.dyn_peer[25]  lookupTimeSig:vector  ETV
vector 32053  Network.dyn_peer[26]  lookupHopsSig:vector  ETV
vector 32052  Network.dyn_peer[26]  lookupTimeSig:vector  ETV
vector 32055  Network.dyn_peer[27]  lookupHopsSig:vector  ETV
vector 32054  Network.dyn_peer[27]  lookupTimeSig:vector  ETV
vector 32057  Network.dyn_peer[28]  lookupHopsSig:vector  ETV
vector 32056  Network.dyn_peer[28]  lookupTimeSig:vector  ETV
vector 32059  Network.dyn_peer[29]  lookupHopsSig:vector  ETV
vector 32058  Network.dyn_peer[29]  lookupTimeSig:vector  ETV
vector 32061  Network.dyn_peer[30]  lookupHopsSig:vector  ETV
vector 32060  Network.dyn_peer[30]  lookupTimeSig:vector  ETV
vector 32063  Network.dyn_peer[31]  lookupHopsSig:vector  ETV
vector 32062  Network.dyn_peer[31]  lookupTimeSig:vector  ETV
vector 32065  Network.dyn_peer[32]  lookupHopsSig:vector  ETV
vector 32064  Network.dyn_peer[32]  lookupTimeSig:vector  ETV
vector 32067  Network.dyn_peer[33]  lookupHopsSig:vector  ETV
vector 32066  Network.dyn_peer[33]  lookupTimeSig:vector  ETV
vector 32069  Network.dyn_peer[34]  lookupHopsSig:vector  ETV
vector 32068  Network.dyn_peer[34]  lookupTimeSig:vector  ETV
vector 32071  Network.dyn_peer[35]  lookupHopsSig:vector  ETV
vector 32070  Network.dyn_peer[35]  lookupTimeSig:vector  ETV
vector 32073  Network.dyn_peer[36]  lookupHopsSig:vector  ETV
vector 32072  Network.dyn_peer[36]  lookupTimeSig:vector  ETV
vector 32075  Network.dyn_peer[37]  lookupHopsSig:vector  ETV
vector 32074  Network.dyn_peer[37]  lookupTimeSig:vector  ETV
vector 32077  Network.dyn_peer[38]  lookupHopsSig:vector  ETV
vector 32076  Network.dyn_peer[38]  lookupTimeSig:vector  ETV
vector 32079  Network.dyn_peer[39]  lookupHopsSig:vector  ETV
vector 32078  Network.dyn_peer[39]  lookupTimeSig:vector  ETV
vector 32081  Network.dyn_peer[40]  lookupHopsSig:vector  ETV
vector 32080  Network.dyn_peer[40]  lookupTimeSig:vector  ETV
vector 32083  Network.dyn_peer[41]  lookupHopsSig:vector  ETV
vector 32082  Network.dyn_peer[41]  lookupTimeSig:vector  ETV
vector 32085  Network.dyn_peer[42]  lookupHopsSig:vector  ETV
vector 32084  Network.dyn_peer[42]  lookupTimeSig:vector  ETV
vector 32087  Network.dyn_peer[43]  lookupHopsSig:vector  ETV
vector 32086  Network.dyn_peer[43]  lookupTimeSig:vector  ETV
vector 32089  Network.dyn_peer[44]  lookupHopsSig:vector  ETV
vector 32088  Network.dyn_peer[44]  lookupTimeSig:vector  ETV
vector 32091  Network.dyn_peer[45]  lookupHopsSig:vector  ETV
vector 32090  Network.dyn_peer[45]  lookupTimeSig:vector  ETV
vector 32093  Network.dyn_peer[46]  lookupHopsSig:vector  ETV
vector 32092  Network.dyn_peer[46]  lookupTimeSig:vector  ETV
vector 32095  Network.dyn_peer[47]  lookupHopsSig:vector  ETV
vector 32094  Network.dyn_peer[47]  lookupTimeSig:vector  ETV
vector 32097  Network.dyn_peer[48]  lookupHopsSig:vector  ETV
vector 32096  Network.dyn_peer[48]  lookupTimeSig:vector  ETV
vector 32099  Network.dyn_peer[49]  lookupHopsSig:vector  ETV
vector 32098  Network.dyn_peer[49]  lookupTimeSig:vector  ETV
vector 32101  Network.dyn_peer[50]  lookupHopsSig:vector  ETV
vector 32100  Network.dyn_peer[50]  lookupTimeSig:vector  ETV
vector 32103  Network.dyn_peer[51]  lookupHopsSig:vector  ETV
vector 32102  Network.dyn_peer[51]  lookupTimeSig:vector  ETV
vector 32105  Network.dyn_peer[52]  lookupHopsSig:vector  ETV
vector 32104  Network.dyn_peer[52]  lookupTimeSig:vector  ETV
vector 32107  Network.dyn_peer[53]  lookupHopsSig:vector  ETV
vector 32106  Network.dyn_peer[53]  lookupTimeSig:vector  ETV
vector 32109  Network.dyn_peer[54]  lookupHopsSig:vector  ETV
vector 32108  Network.dyn_peer[54]  lookupTimeSig:vector  ETV
vector 32111  Network.dyn_peer[55]  lookupHopsSig:vector  ETV
vector 32110  Network.dyn_peer[55]  lookupTimeSig:vector  ETV
vector 32113  Network.dyn_peer[56]  lookupHopsSig:vector  ETV
vector 32112  Network.dyn_peer[56]  lookupTimeSig:vector  ETV
vector 32115  Network.dyn_peer[57]  lookupHopsSig:vector  ETV
vector 32114  Network.dyn_peer[57]  lookupTimeSig:vector  ETV
vector 32117  Network.dyn_peer[58]  lookupHopsSig:vector  ETV
vector 32116  Network.dyn_peer[58]  lookupTimeSig:vector  ETV
vector 32119  Network.dyn_peer[59]  lookupHopsSig:vector  ETV
vector 32118  Network.dyn_peer[59]  lookupTimeSig:vector  ETV
vector 32121  Network.dyn_peer[60]  lookupHopsSig:vector  ETV
vector 32120  Network.dyn_peer[60]  lookupTimeSig:vector  ETV
vector 32123  Network.dyn_peer[61]  lookupHopsSig:vector  ETV
vector 32122  Network.dyn_peer[61]  lookupTimeSig:vector  ETV
vector 32125  Network.dyn_peer[62]  lookupHopsSig:vector  ETV
vector 32124  Network.dyn_peer[62]  lookupTimeSig:vector  ETV
vector 32127  Network.dyn_peer[63]  lookupHopsSig:vector  ETV
vector 32126  Network.dyn_peer[63]  lookupTimeSig:vector  ETV
vector 32129  Network.dyn_peer[64]  lookupHopsSig:vector  ETV
vector 32128  Network.dyn_peer[64]  lookupTimeSig:vector  ETV
vector 32131  Network.dyn_peer[65]  lookupHopsSig:vector  ETV
vector 32130  Network.dyn_peer[65]  lookupTimeSig:vector  ETV
vector 32133  Network.dyn_peer[66]  lookupHopsSig:vector  ETV
vector 32132  Network.dyn_peer[66]  lookupTimeSig:vector  ETV
vector 32135  Network.dyn_peer[67]  lookupHopsSig:vector  ETV
vector 32134  Network.dyn_peer[67]  lookupTimeSig:vector  ETV
vector 32137  Network.dyn_peer[68]  lookupHopsSig:vector  ETV
vector 32136  Network.dyn_peer[68]  lookupTimeSig:vector  ETV
vector 32139  Network.dyn_peer[69]  lookupHopsSig:vector  ETV
vector 32138  Network.dyn_peer[69]  lookupTimeSig:vector  ETV
vector 32141  Network.dyn_peer[70]  lookupHopsSig:vector  ETV
vector 32140  Network.dyn_peer[70]  lookupTimeSig:vector  ETV
vector 32143  Network.dyn_peer[71]  lookupHopsSig:vector  ETV
vector 32142  Network.dyn_peer[71]  lookupTimeSig:vector  ETV
vector 32145  Network.dyn_peer[72]  lookupHopsSig:vector  ETV
vector 32144  Network.dyn_peer[72]  lookupTimeSig:vector  ETV
vector 32147  Network.dyn_peer[73]  lookupHopsSig:vector  ETV
vector 32146  Network.dyn_peer[73]  lookupTimeSig:vector  ETV
vector 32149  Network.dyn_peer[74]  lookupHopsSig:vector  ETV
vector 32148  Network.dyn_peer[74]  lookupTimeSig:vector  ETV
vector 32151  Network.dyn_peer[75]  lookupHopsSig:vector  ETV
vector 32150  Network.dyn_peer[75]  lookupTimeSig:vector  ETV
vector 32153  Network.dyn_peer[76]  lookupHopsSig:vector  ETV
vector 32152  Network.dyn_peer[76]  lookupTimeSig:vector  ETV
vector 32155  Network.dyn_peer[77]  lookupHopsSig:vector  ETV
vector 32154  Network.dyn_peer[77]  lookupTimeSig:vector  ETV
vector 32157  Network.dyn_peer[78]  lookupHopsSig:vector  ETV
vector 32156  Network.dyn_peer[78]  lookupTimeSig:vector  ETV
vector 32159  Network.dyn_peer[79]  lookupHopsSig:vector  ETV
vector 32158  Network.dyn_peer[79]  lookupTimeSig:vector  ETV
vector 32161  Network.dyn_peer[80]  lookupHopsSig:vector  ETV
vector 32160  Network.dyn_peer[80]  lookupTimeSig:vector  ETV
vector 32163  Network.dyn_peer[81]  lookupHopsSig:vector  ETV
vector 32162  Network.dyn_peer[81]  lookupTimeSig:vector  ETV
vector 32165  Network.dyn_peer[82]  lookupHopsSig:vector  ETV
vector 32164  Network.dyn_peer[82]  lookupTimeSig:vector  ETV
vector 32167  Network.dyn_peer[83]  lookupHopsSig:vector  ETV
vector 32166  Network.dyn_peer[83]  lookupTimeSig:vector  ETV
vector 32169  Network.dyn_peer[84]  lookupHopsSig:vector  ETV
vector 32168  Network.dyn_peer[84]  lookupTimeSig:vector  ETV
vector 32171  Network.dyn_peer[85]  lookupHopsSig:vector  ETV
vector 32170  Network.dyn_peer[85]  lookupTimeSig:vector  ETV
vector 32173  Network.dyn_peer[86]  lookupHopsSig:vector  ETV
vector 32172  Network.dyn_peer[86]  lookupTimeSig:vector  ETV
vector 32175  Network.dyn_peer[87]  lookupHopsSig:vector  ETV
vector 32174  Network.dyn_peer[87]  lookupTimeSig:vector  ETV
vector 32177  Network.dyn_peer[88]  lookupHopsSig:vector  ETV
vector 32176  Network.dyn_peer[88]  lookupTimeSig:vector  ETV
vector 32179  Network.dyn_peer[89]  lookupHopsSig:vector  ETV
vector 32178  Network.dyn_peer[89]  lookupTimeSig:vector  ETV
vector 32181  Network.dyn_peer[90]  lookupHopsSig:vector  ETV
vector 32180  Network.dyn_peer[90]  lookupTimeSig:vector  ETV
vector 32183  Network.dyn_peer[91]  lookupHopsSig:vector  ETV
vector 32182  Network.dyn_peer[91]  lookupTimeSig:vector  ETV
vector 32185  Network.dyn_peer[92]  lookupHopsSig:vector  ETV
vector 32184  Network.dyn_peer[92]  lookupTimeSig:vector  ETV
vector 32187  Network.dyn_peer[93]  lookupHopsSig:vector  ETV
vector 32186  Network.dyn_peer[93]  lookupTimeSig:vector  ETV
vector 32189  Network.dyn_peer[94]  lookupHopsSig:vector  ETV
vector 32188  Network.dyn_peer[94]  lookupTimeSig:vector  ETV
vector 32191  Network.dyn_peer[95]  lookupHopsSig:vector  ETV
vector 32190  Network.dyn_peer[95]  lookupTimeSig:vector  ETV
vector 32193  Network.dyn_peer[96]  lookupHopsSig:vector  ETV
vector 32192  Network.dyn_peer[96]  lookupTimeSig:vector  ETV
vector 32195  Network.dyn_peer[97]  lookupHopsSig:vector  ETV
vector 32194  Network.dyn_peer[97]  lookupTimeSig:vector  ETV
vector 32197  Network.dyn_peer[98]  lookupHopsSig:vector  ETV
vector 32196  Network.dyn_peer[98]  lookupTimeSig:vector  ETV
vector 32199  Network.dyn_peer[99]  lookupHopsSig:vector  ETV
vector 32198  Network.dyn_peer[99]  lookupTimeSig:vector  ETV
vector 32201  Network.dyn_peer[100]  lookupHopsSig:vector  ETV
vector 32200  Network.dyn_peer[100]  lookupTimeSig:vector  ETV
vector 32203  Network.dyn_peer[101]  lookupHopsSig:vector  ETV
vector 32202  Network.dyn_peer[101]  lookupTimeSig:vector  ETV
vector 32205  Network.dyn_peer[102]  lookupHopsSig:vector  ETV
vector 32204  Network.dyn_peer[102]  lookupTimeSig:vector  ETV
vector 32207  Network.dyn_peer[103]  lookupHopsSig:vector  ETV
vector 32206  Network.dyn_peer[103]  lookupTimeSig:vector  ETV
vector 32209  Network.dyn_peer[104]  lookupHopsSig:vector  ETV
vector 32208  Network.dyn_peer[104]  lookupTimeSig:vector  ETV
vector 32211  Network.dyn_peer[105]  lookupHopsSig:vector  ETV
vector 32210  Network.dyn_peer[105]  lookupTimeSig:vector  ETV
vector 32213  Network.dyn_peer[106]  lookupHopsSig:vector  ETV
vector 32212  Network.dyn_peer[106]  lookupTimeSig:vector  ETV
vector 32215  Network.dyn_peer[107]  lookupHopsSig:vector  ETV
vector 32214  Network.dyn_peer[107]  lookupTimeSig:vector  ETV
vector 32217  Network.dyn_peer[108]  lookupHopsSig:vector  ETV
vector 32216  Network.dyn_peer[108]  lookupTimeSig:vector  ETV
vector 32219  Network.dyn_peer[109]  lookupHopsSig:vector  ETV
vector 32218  Network.dyn_peer[109]  lookupTimeSig:vector  ETV
vector 32221  Network.dyn_peer[110]  lookupHopsSig:vector  ETV
vector 32220  Network.dyn_peer[110]  lookupTimeSig:vector  ETV
vector 32223  Network.dyn_peer[111]  lookupHopsSig:vector  ETV
vector 32222  Network.dyn_peer[111]  lookupTimeSig:vector  ETV
vector 32225  Network.dyn_peer[112]  lookupHopsSig:vector  ETV
vector 32224  Network.dyn_peer[112]  lookupTimeSig:vector  ETV
vector 32227  Network.dyn_peer[113]  lookupHopsSig:vector  ETV
vector 32226  Network.dyn_peer[113]  lookupTimeSig:vector  ETV
vector 32229  Network.dyn_peer[114]  lookupHopsSig:vector  ETV
vector 32228  Network.dyn_peer[114]  lookupTimeSig:vector  ETV
vector 32231  Network.dyn_peer[115]  lookupHopsSig:vector  ETV
vector 32230  Network.dyn_peer[115]  lookupTimeSig:vector  ETV
vector 32233  Network.dyn_peer[116]  lookupHopsSig:vector  ETV
vector 32232  Network.dyn_peer[116]  lookupTimeSig:vector  ETV
vector 32235  Network.dyn_peer[117]  lookupHopsSig:vector  ETV
vector 32234  Network.dyn_peer[117]  lookupTimeSig:vector  ETV
vector 32237  Network.dyn_peer[118]  lookupHopsSig:vector  ETV
vector 32236  Network.dyn_peer[118]  lookupTimeSig:vector  ETV
vector 32239  Network.dyn_peer[119]  lookupHopsSig:vector  ETV
vector 32238  Network.dyn_peer[119]  lookupTimeSig:vector  ETV
vector 32241  Network.dyn_peer[120]  lookupHopsSig:vector  ETV
vector 32240  Network.dyn_peer[120]  lookupTimeSig:vector  ETV
vector 32243  Network.dyn_peer[121]  lookupHopsSig:vector  ETV
vector 32242  Network.dyn_peer[121]  lookupTimeSig:vector  ETV
vector 32245  Network.dyn_peer[122]  lookupHopsSig:vector  ETV
vector 32244  Network.dyn_peer[122]  lookupTimeSig:vector  ETV
vector 32247  Network.dyn_peer[123]  lookupHopsSig:vector  ETV
vector 32246  Network.dyn_peer[123]  lookupTimeSig:vector  ETV
vector 32249  Network.dyn_peer[124]  lookupHopsSig:vector  ETV
vector 32248  Network.dyn_peer[124]  lookupTimeSig:vector  ETV
vector 32251  Network.dyn_peer[125]  lookupHopsSig:vector  ETV
vector 32250  Network.dyn_peer[125]  lookupTimeSig:vector  ETV
vector 32253  Network.dyn_peer[126]  lookupHopsSig:vector  ETV
vector 32252  Network.dyn_peer[126]  lookupTimeSig:vector  ETV
vector 32255  Network.dyn_peer[127]  lookupHopsSig:vector  ETV
vector 32254  Network.dyn_peer[127]  lookupTimeSig:vector  ETV
vector 32257  Network.dyn_peer[128]  lookupHopsSig:vector  ETV
vector 32256  Network.dyn_peer[128]  lookupTimeSig:vector  ETV
vector 32259  Network.dyn_peer[129]  lookupHopsSig:vector  ETV
vector 32258  Network.dyn_peer[129]  lookupTimeSig:vector  ETV
vector 32261  Network.dyn_peer[130]  lookupHopsSig:vector  ETV
vector 32260  Network.dyn_peer[130]  lookupTimeSig:vector  ETV
vector 32263  Network.dyn_peer[131]  lookupHopsSig:vector  ETV
vector 32262  Network.dyn_peer[131]  lookupTimeSig:vector  ETV
vector 32265  Network.dyn_peer[132]  lookupHopsSig:vector  ETV
vector 32264  Network.dyn_peer[132]  lookupTimeSig:vector  ETV
vector 32267  Network.dyn_peer[133]  lookupHopsSig:vector  ETV
vector 32266  Network.dyn_peer[133]  lookupTimeSig:vector  ETV
vector 32269  Network.dyn_peer[134]  lookupHopsSig:vector  ETV
vector 32268  Network.dyn_peer[134]  lookupTimeSig:vector  ETV
vector 32271  Network.dyn_peer[135]  lookupHopsSig:vector  ETV
vector 32270  Network.dyn_peer[135]  lookupTimeSig:vector  ETV
vector 32273  Network.dyn_peer[136]  lookupHopsSig:vector  ETV
vector 32272  Network.dyn_peer[136]  lookupTimeSig:vector  ETV
vector 32275  Network.dyn_peer[137]  lookupHopsSig:vector  ETV
vector 32274  Network.dyn_peer[137]  lookupTimeSig:vector  ETV
vector 32277  Network.dyn_peer[138]  lookupHopsSig:vector  ETV
vector 32276  Network.dyn_peer[138]  lookupTimeSig:vector  ETV
vector 32279  Network.dyn_peer[139]  lookupHopsSig:vector  ETV
vector 32278  Network.dyn_peer[139]  lookupTimeSig:vector  ETV
vector 32281  Network.dyn_peer[140]  lookupHopsSig:vector  ETV
vector 32280  Network.dyn_peer[140]  lookupTimeSig:vector  ETV
vector 32283  Network.dyn_peer[141]  lookupHopsSig:vector  ETV
vector 32282  Network.dyn_peer[141]  lookupTimeSig:vector  ETV
vector 32285  Network.dyn_peer[142]  lookupHopsSig:vector  ETV
vector 32284  Network.dyn_peer[142]  lookupTimeSig:vector  ETV
vector 32287  Network.dyn_peer[143]  lookupHopsSig:vector  ETV
vector 32286  Network.dyn_peer[143]  lookupTimeSig:vector  ETV
vector 32289  Network.dyn_peer[144]  lookupHopsSig:vector  ETV
vector 32288  Network.dyn_peer[144]  lookupTimeSig:vector  ETV
vector 32291  Network.dyn_peer[145]  lookupHopsSig:vector  ETV
vector 32290  Network.dyn_peer[145]  lookupTimeSig:vector  ETV
vector 32293  Network.dyn_peer[146]  lookupHopsSig:vector  ETV
vector 32292  Network.dyn_peer[146]  lookupTimeSig:vector  ETV
vector 32295  Network.dyn_peer[147]  lookupHopsSig:vector  ETV
vector 32294  Network.dyn_peer[147]  lookupTimeSig:vector  ETV
vector 32297  Network.dyn_peer[148]  lookupHopsSig:vector  ETV
vector 32296  Network.dyn_peer[148]  lookupTimeSig:vector  ETV
vector 32299  Network.dyn_peer[149]  lookupHopsSig:vector  ETV
vector 32298  Network.dyn_peer[149]  lookupTimeSig:vector  ETV
vector 32301  Network.dyn_peer[150]  lookupHopsSig:vector  ETV
vector 32300  Network.dyn_peer[150]  lookupTimeSig:vector  ETV
vector 32303  Network.dyn_peer[151]  lookupHopsSig:vector  ETV
vector 32302  Network.dyn_peer[151]  lookupTimeSig:vector  ETV
vector 32305  Network.dyn_peer[152]  lookupHopsSig:vector  ETV
vector 32304  Network.dyn_peer[152]  lookupTimeSig:vector  ETV
vector 32307  Network.dyn_peer[153]  lookupHopsSig:vector  ETV
vector 32306  Network.dyn_peer[153]  lookupTimeSig:vector  ETV
vector 32309  Network.dyn_peer[154]  lookupHopsSig:vector  ETV
vector 32308  Network.dyn_peer[154]  lookupTimeSig:vector  ETV
vector 32311  Network.dyn_peer[155]  lookupHopsSig:vector  ETV
vector 32310  Network.dyn_peer[155]  lookupTimeSig:vector  ETV
vector 32313  Network.dyn_peer[156]  lookupHopsSig:vector  ETV
vector 32312  Network.dyn_peer[156]  lookupTimeSig:vector  ETV
vector 32315  Network.dyn_peer[157]  lookupHopsSig:vector  ETV
vector 32314  Network.dyn_peer[157]  lookupTimeSig:vector  ETV
vector 32317  Network.dyn_peer[158]  lookupHopsSig:vector  ETV
vector 32316  Network.dyn_peer[158]  lookupTimeSig:vector  ETV
vector 32319  Network.dyn_peer[159]  lookupHopsSig:vector  ETV
vector 32318  Network.dyn_peer[159]  lookupTimeSig:vector  ETV
vector 32321  Network.dyn_peer[160]  lookupHopsSig:vector  ETV
vector 32320  Network.dyn_peer[160]  lookupTimeSig:vector  ETV
vector 32323  Network.dyn_peer[161]  lookupHopsSig:vector  ETV
vector 32322  Network.dyn_peer[161]  lookupTimeSig:vector  ETV
vector 32325  Network.dyn_peer[162]  lookupHopsSig:vector  ETV
vector 32324  Network.dyn_peer[162]  lookupTimeSig:vector  ETV
vector 32327  Network.dyn_peer[163]  lookupHopsSig:vector  ETV
vector 32326  Network.dyn_peer[163]  lookupTimeSig:vector  ETV
vector 32329  Network.dyn_peer[164]  lookupHopsSig:vector  ETV
vector 32328  Network.dyn_peer[164]  lookupTimeSig:vector  ETV
vector 32331  Network.dyn_peer[165]  lookupHopsSig:vector  ETV
vector 32330  Network.dyn_peer[165]  lookupTimeSig:vector  ETV
vector 32333  Network.dyn_peer[166]  lookupHopsSig:vector  ETV
vector 32332  Network.dyn_peer[166]  lookupTimeSig:vector  ETV
vector 32335  Network.dyn_peer[167]  lookupHopsSig:vector  ETV
vector 32334  Network.dyn_peer[167]  lookupTimeSig:vector  ETV
vector 32337  Network.dyn_peer[168]  lookupHopsSig:vector  ETV
vector 32336  Network.dyn_peer[168]  lookupTimeSig:vector  ETV
vector 32339  Network.dyn_peer[169]  lookupHopsSig:vector  ETV
vector 32338  Network.dyn_peer[169]  lookupTimeSig:vector  ETV
vector 32341  Network.dyn_peer[170]  lookupHopsSig:vector  ETV
vector 32340  Network.dyn_peer[170]  lookupTimeSig:vector  ETV
vector 32343  Network.dyn_peer[171]  lookupHopsSig:vector  ETV
vector 32342  Network.dyn_peer[171]  lookupTimeSig:vector  ETV
vector 32345  Network.dyn_peer[172]  lookupHopsSig:vector  ETV
vector 32344  Network.dyn_peer[172]  lookupTimeSig:vector  ETV
vector 32347  Network.dyn_peer[173]  lookupHopsSig:vector  ETV
vector 32346  Network.dyn_peer[173]  lookupTimeSig:vector  ETV
vector 32349  Network.dyn_peer[174]  lookupHopsSig:vector  ETV
vector 32348  Network.dyn_peer[174]  lookupTimeSig:vector  ETV
vector 32351  Network.dyn_peer[175]  lookupHopsSig:vector  ETV
vector 32350  Network.dyn_peer[175]  lookupTimeSig:vector  ETV
vector 32353  Network.dyn_peer[176]  lookupHopsSig:vector  ETV
vector 32352  Network.dyn_peer[176]  lookupTimeSig:vector  ETV
vector 32355  Network.dyn_peer[177]  lookupHopsSig:vector  ETV
vector 32354  Network.dyn_peer[177]  lookupTimeSig:vector  ETV
vector 32357  Network.dyn_peer[178]  lookupHopsSig:vector  ETV
vector 32356  Network.dyn_peer[178]  lookupTimeSig:vector  ETV
vector 32359  Network.dyn_peer[179]  lookupHopsSig:vector  ETV
vector 32358  Network.dyn_peer[179]  lookupTimeSig:vector  ETV
vector 32361  Network.dyn_peer[180]  lookupHopsSig:vector  ETV
vector 32360  Network.dyn_peer[180]  lookupTimeSig:vector  ETV
vector 32363  Network.dyn_peer[181]  lookupHopsSig:vector  ETV
vector 32362  Network.dyn_peer[181]  lookupTimeSig:vector  ETV
vector 32365  Network.dyn_peer[182]  lookupHopsSig:vector  ETV
vector 32364  Network.dyn_peer[182]  lookupTimeSig:vector  ETV
vector 32367  Network.dyn_peer[183]  lookupHopsSig:vector  ETV
vector 32366  Network.dyn_peer[183]  lookupTimeSig:vector  ETV
vector 32369  Network.dyn_peer[184]  lookupHopsSig:vector  ETV
vector 32368  Network.dyn_peer[184]  lookupTimeSig:vector  ETV
vector 32371  Network.dyn_peer[185]  lookupHopsSig:vector  ETV
vector 32370  Network.dyn_peer[185]  lookupTimeSig:vector  ETV
vector 32373  Network.dyn_peer[186]  lookupHopsSig:vector  ETV
vector 32372  Network.dyn_peer[186]  lookupTimeSig:vector  ETV
vector 32375  Network.dyn_peer[187]  lookupHopsSig:vector  ETV
vector 32374  Network.dyn_peer[187]  lookupTimeSig:vector  ETV
vector 32377  Network.dyn_peer[188]  lookupHopsSig:vector  ETV
vector 32376  Network.dyn_peer[188]  lookupTimeSig:vector  ETV
vector 32379  Network.dyn_peer[189]  lookupHopsSig:vector  ETV
vector 32378  Network.dyn_peer[189]  lookupTimeSig:vector  ETV
vector 32381  Network.dyn_peer[190]  lookupHopsSig:vector  ETV
vector 32380  Network.dyn_peer[190]  lookupTimeSig:vector  ETV
vector 32383  Network.dyn_peer[191]  lookupHopsSig:vector  ETV
vector 32382  Network.dyn_peer[191]  lookupTimeSig:vector  ETV
vector 32385  Network.dyn_peer[192]  lookupHopsSig:vector  ETV
vector 32384  Network.dyn_peer[192]  lookupTimeSig:vector  ETV
vector 32387  Network.dyn_peer[193]  lookupHopsSig:vector  ETV
vector 32386  Network.dyn_peer[193]  lookupTimeSig:vector  ETV
vector 32389  Network.dyn_peer[194]  lookupHopsSig:vector  ETV
vector 32388  Network.dyn_peer[194]  lookupTimeSig:vector  ETV
vector 32391  Network.dyn_peer[195]  lookupHopsSig:vector  ETV
vector 32390  Network.dyn_peer[195]  lookupTimeSig:vector  ETV
vector 32393  Network.dyn_peer[196]  lookupHopsSig:vector  ETV
vector 32392  Network.dyn_peer[196]  lookupTimeSig:vector  ETV
vector 32395  Network.dyn_peer[197]  lookupHopsSig:vector  ETV
vector 32394  Network.dyn_peer[197]  lookupTimeSig:vector  ETV
vector 32397  Network.dyn_peer[198]  lookupHopsSig:vector  ETV
vector 32396  Network.dyn_peer[198]  lookupTimeSig:vector  ETV
vector 32399  Network.dyn_peer[199]  lookupHopsSig:vector  ETV
vector 32398  Network.dyn_peer[199]  lookupTimeSig:vector  ETV
vector 32401  Network.dyn_peer[200]  lookupHopsSig:vector  ETV
vector 32400  Network.dyn_peer[200]  lookupTimeSig:vector  ETV
vector 32403  Network.dyn_peer[201]  lookupHopsSig:vector  ETV
vector 32402  Network.dyn_peer[201]  lookupTimeSig:vector  ETV
vector 32405  Network.dyn_peer[202]  lookupHopsSig:vector  ETV
vector 32404  Network.dyn_peer[202]  lookupTimeSig:vector  ETV
vector 32407  Network.dyn_peer[203]  lookupHopsSig:vector  ETV
vector 32406  Network.dyn_peer[203]  lookupTimeSig:vector  ETV
vector 32409  Network.dyn_peer[204]  lookupHopsSig:vector  ETV
vector 32408  Network.dyn_peer[204]  lookupTimeSig:vector  ETV
vector 32411  Network.dyn_peer[205]  lookupHopsSig:vector  ETV
vector 32410  Network.dyn_peer[205]  lookupTimeSig:vector  ETV
vector 32413  Network.dyn_peer[206]  lookupHopsSig:vector  ETV
vector 32412  Network.dyn_peer[206]  lookupTimeSig:vector  ETV
vector 32415  Network.dyn_peer[207]  lookupHopsSig:vector  ETV
vector 32414  Network.dyn_peer[207]  lookupTimeSig:vector  ETV
vector 32417  Network.dyn_peer[208]  lookupHopsSig:vector  ETV
vector 32416  Network.dyn_peer[208]  lookupTimeSig:vector  ETV
vector 32419  Network.dyn_peer[209]  lookupHopsSig:vector  ETV
vector 32418  Network.dyn_peer[209]  lookupTimeSig:vector  ETV
vector 32421  Network.dyn_peer[210]  lookupHopsSig:vector  ETV
vector 32420  Network.dyn_peer[210]  lookupTimeSig:vector  ETV
vector 32423  Network.dyn_peer[211]  lookupHopsSig:vector  ETV
vector 32422  Network.dyn_peer[211]  lookupTimeSig:vector  ETV
vector 32425  Network.dyn_peer[212]  lookupHopsSig:vector  ETV
vector 32424  Network.dyn_peer[212]  lookupTimeSig:vector  ETV
vector 32427  Network.dyn_peer[213]  lookupHopsSig:vector  ETV
vector 32426  Network.dyn_peer[213]  lookupTimeSig:vector  ETV
vector 32429  Network.dyn_peer[214]  lookupHopsSig:vector  ETV
vector 32428  Network.dyn_peer[214]  lookupTimeSig:vector  ETV
vector 32431  Network.dyn_peer[215]  lookupHopsSig:vector  ETV
vector 32430  Network.dyn_peer[215]  lookupTimeSig:vector  ETV
vector 32433  Network.dyn_peer[216]  lookupHopsSig:vector  ETV
vector 32432  Network.dyn_peer[216]  lookupTimeSig:vector  ETV
vector 32435  Network.dyn_peer[217]  lookupHopsSig:vector  ETV
vector 32434  Network.dyn_peer[217]  lookupTimeSig:vector  ETV
vector 32437  Network.dyn_peer[218]  lookupHopsSig:vector  ETV
vector 32436  Network.dyn_peer[218]  lookupTimeSig:vector  ETV
vector 32439  Network.dyn_peer[219]  lookupHopsSig:vector  ETV
vector 32438  Network.dyn_peer[219]  lookupTimeSig:vector  ETV
vector 32441  Network.dyn_peer[220]  lookupHopsSig:vector  ETV
vector 32440  Network.dyn_peer[220]  lookupTimeSig:vector  ETV
vector 32443  Network.dyn_peer[221]  lookupHopsSig:vector  ETV
vector 32442  Network.dyn_peer[221]  lookupTimeSig:vector  ETV
vector 32445  Network.dyn_peer[222]  lookupHopsSig:vector  ETV
vector 32444  Network.dyn_peer[222]  lookupTimeSig:vector  ETV
vector 32447  Network.dyn_peer[223]  lookupHopsSig:vector  ETV
vector 32446  Network.dyn_peer[223]  lookupTimeSig:vector  ETV
vector 32449  Network.dyn_peer[224]  lookupHopsSig:vector  ETV
vector 32448  Network.dyn_peer[224]  lookupTimeSig:vector  ETV
vector 32451  Network.dyn_peer[225]  lookupHopsSig:vector  ETV
vector 32450  Network.dyn_peer[225]  lookupTimeSig:vector  ETV
vector 32453  Network.dyn_peer[226]  lookupHopsSig:vector  ETV
vector 32452  Network.dyn_peer[226]  lookupTimeSig:vector  ETV
vector 32455  Network.dyn_peer[227]  lookupHopsSig:vector  ETV
vector 32454  Network.dyn_peer[227]  lookupTimeSig:vector  ETV
vector 32457  Network.dyn_peer[228]  lookupHopsSig:vector  ETV
vector 32456  Network.dyn_peer[228]  lookupTimeSig:vector  ETV
vector 32459  Network.dyn_peer[229]  lookupHopsSig:vector  ETV
vector 32458  Network.dyn_peer[229]  lookupTimeSig:vector  ETV
vector 32461  Network.dyn_peer[230]  lookupHopsSig:vector  ETV
vector 32460  Network.dyn_peer[230]  lookupTimeSig:vector  ETV
vector 32463  Network.dyn_peer[231]  lookupHopsSig:vector  ETV
vector 32462  Network.dyn_peer[231]  lookupTimeSig:vector  ETV
vector 32465  Network.dyn_peer[232]  lookupHopsSig:vector  ETV
vector 32464  Network.dyn_peer[232]  lookupTimeSig:vector  ETV
vector 32467  Network.dyn_peer[233]  lookupHopsSig:vector  ETV
vector 32466  Network.dyn_peer[233]  lookupTimeSig:vector  ETV
vector 32469  Network.dyn_peer[234]  lookupHopsSig:vector  ETV
vector 32468  Network.dyn_peer[234]  lookupTimeSig:vector  ETV
vector 32471  Network.dyn_peer[235]  lookupHopsSig:vector  ETV
vector 32470  Network.dyn_peer[235]  lookupTimeSig:vector  ETV
vector 32473  Network.dyn_peer[236]  lookupHopsSig:vector  ETV