file 573371 1369169264                                          
version 2
run Stability-291-20130521-22:47:38-23591
attr configname Stability
attr datetime 20130521-22:47:38
attr experiment Stability
attr inifile omnetpp.ini
attr iterationvars $0=0.015625
attr iterationvars2 "$0=0.015625, $repetition=21"
attr measurement $0=0.015625
attr network Network
attr processid 23591
attr repetition 21
attr replication #21
attr resultdir results
attr runnumber 291
attr seedset 291

vector 582025  Network.dyn_peer[12]  lookupHopsSig:vector  ETV
vector 582024  Network.dyn_peer[12]  lookupTimeSig:vector  ETV
vector 582013  Network.dyn_peer[6]  lookupHopsSig:vector  ETV
vector 582012  Network.dyn_peer[6]  lookupTimeSig:vector  ETV
vector 582021  Network.dyn_peer[10]  lookupHopsSig:vector  ETV
vector 582020  Network.dyn_peer[10]  lookupTimeSig:vector  ETV
vector 582009  Network.dyn_peer[4]  lookupHopsSig:vector  ETV
vector 582008  Network.dyn_peer[4]  lookupTimeSig:vector  ETV
vector 582011  Network.dyn_peer[5]  lookupHopsSig:vector  ETV
vector 582010  Network.dyn_peer[5]  lookupTimeSig:vector  ETV
vector 582003  Network.dyn_peer[1]  lookupHopsSig:vector  ETV
vector 582002  Network.dyn_peer[1]  lookupTimeSig:vector  ETV
vector 582017  Network.dyn_peer[8]  lookupHopsSig:vector  ETV
vector 582016  Network.dyn_peer[8]  lookupTimeSig:vector  ETV
vector 582031  Network.dyn_peer[15]  lookupHopsSig:vector  ETV
vector 582030  Network.dyn_peer[15]  lookupTimeSig:vector  ETV
vector 582007  Network.dyn_peer[3]  lookupHopsSig:vector  ETV
vector 582006  Network.dyn_peer[3]  lookupTimeSig:vector  ETV
vector 582033  Network.dyn_peer[16]  lookupHopsSig:vector  ETV
vector 582032  Network.dyn_peer[16]  lookupTimeSig:vector  ETV
vector 582001  Network.dyn_peer[0]  lookupHopsSig:vector  ETV
vector 582000  Network.dyn_peer[0]  lookupTimeSig:vector  ETV
vector 582027  Network.dyn_peer[13]  lookupHopsSig:vector  ETV
vector 582026  Network.dyn_peer[13]  lookupTimeSig:vector  ETV
vector 582019  Network.dyn_peer[9]  lookupHopsSig:vector  ETV
vector 582018  Network.dyn_peer[9]  lookupTimeSig:vector  ETV
vector 582039  Network.dyn_peer[19]  lookupHopsSig:vector  ETV
vector 582038  Network.dyn_peer[19]  lookupTimeSig:vector  ETV
vector 582015  Network.dyn_peer[7]  lookupHopsSig:vector  ETV
vector 582014  Network.dyn_peer[7]  lookupTimeSig:vector  ETV
vector 582049  Network.dyn_peer[24]  lookupHopsSig:vector  ETV
vector 582048  Network.dyn_peer[24]  lookupTimeSig:vector  ETV
vector 582041  Network.dyn_peer[20]  lookupHopsSig:vector  ETV
vector 582040  Network.dyn_peer[20]  lookupTimeSig:vector  ETV
vector 582029  Network.dyn_peer[14]  lookupHopsSig:vector  ETV
vector 582028  Network.dyn_peer[14]  lookupTimeSig:vector  ETV
vector 582055  Network.dyn_peer[27]  lookupHopsSig:vector  ETV
vector 582054  Network.dyn_peer[27]  lookupTimeSig:vector  ETV
vector 582043  Network.dyn_peer[21]  lookupHopsSig:vector  ETV
vector 582042  Network.dyn_peer[21]  lookupTimeSig:vector  ETV
vector 582005  Network.dyn_peer[2]  lookupHopsSig:vector  ETV
vector 582004  Network.dyn_peer[2]  lookupTimeSig:vector  ETV
vector 582069  Network.dyn_peer[34]  lookupHopsSig:vector  ETV
vector 582068  Network.dyn_peer[34]  lookupTimeSig:vector  ETV
vector 582057  Network.dyn_peer[28]  lookupHopsSig:vector  ETV
vector 582056  Network.dyn_peer[28]  lookupTimeSig:vector  ETV
vector 582073  Network.dyn_peer[36]  lookupHopsSig:vector  ETV
vector 582072  Network.dyn_peer[36]  lookupTimeSig:vector  ETV
vector 582035  Network.dyn_peer[17]  lookupHopsSig:vector  ETV
vector 582034  Network.dyn_peer[17]  lookupTimeSig:vector  ETV
vector 582023  Network.dyn_peer[11]  lookupHopsSig:vector  ETV
vector 582022  Network.dyn_peer[11]  lookupTimeSig:vector  ETV
vector 582079  Network.dyn_peer[39]  lookupHopsSig:vector  ETV
vector 582078  Network.dyn_peer[39]  lookupTimeSig:vector  ETV
vector 582083  Network.dyn_peer[41]  lookupHopsSig:vector  ETV
vector 582082  Network.dyn_peer[41]  lookupTimeSig:vector  ETV
vector 582059  Network.dyn_peer[29]  lookupHopsSig:vector  ETV
vector 582058  Network.dyn_peer[29]  lookupTimeSig:vector  ETV
vector 582047  Network.dyn_peer[23]  lookupHopsSig:vector  ETV
vector 582046  Network.dyn_peer[23]  lookupTimeSig:vector  ETV
vector 582061  Network.dyn_peer[30]  lookupHopsSig:vector  ETV
vector 582060  Network.dyn_peer[30]  lookupTimeSig:vector  ETV
vector 582037  Network.dyn_peer[18]  lookupHopsSig:vector  ETV
vector 582036  Network.dyn_peer[18]  lookupTimeSig:vector  ETV
vector 582089  Network.dyn_peer[44]  lookupHopsSig:vector  ETV
vector 582088  Network.dyn_peer[44]  lookupTimeSig:vector  ETV
vector 582103  Network.dyn_peer[51]  lookupHopsSig:vector  ETV
vector 582102  Network.dyn_peer[51]  lookupTimeSig:vector  ETV
vector 582067  Network.dyn_peer[33]  lookupHopsSig:vector  ETV
vector 582066  Network.dyn_peer[33]  lookupTimeSig:vector  ETV
vector 582095  Network.dyn_peer[47]  lookupHopsSig:vector  ETV
vector 582094  Network.dyn_peer[47]  lookupTimeSig:vector  ETV
vector 582065  Network.dyn_peer[32]  lookupHopsSig:vector  ETV
vector 582064  Network.dyn_peer[32]  lookupTimeSig:vector  ETV
vector 582105  Network.dyn_peer[52]  lookupHopsSig:vector  ETV
vector 582104  Network.dyn_peer[52]  lookupTimeSig:vector  ETV
vector 582081  Network.dyn_peer[40]  lookupHopsSig:vector  ETV
vector 582080  Network.dyn_peer[40]  lookupTimeSig:vector  ETV
vector 582087  Network.dyn_peer[43]  lookupHopsSig:vector  ETV
vector 582086  Network.dyn_peer[43]  lookupTimeSig:vector  ETV
vector 582051  Network.dyn_peer[25]  lookupHopsSig:vector  ETV
vector 582050  Network.dyn_peer[25]  lookupTimeSig:vector  ETV
vector 582115  Network.dyn_peer[57]  lookupHopsSig:vector  ETV
vector 582114  Network.dyn_peer[57]  lookupTimeSig:vector  ETV
vector 582111  Network.dyn_peer[55]  lookupHopsSig:vector  ETV
vector 582110  Network.dyn_peer[55]  lookupTimeSig:vector  ETV
vector 582045  Network.dyn_peer[22]  lookupHopsSig:vector  ETV
vector 582044  Network.dyn_peer[22]  lookupTimeSig:vector  ETV
vector 582123  Network.dyn_peer[61]  lookupHopsSig:vector  ETV
vector 582122  Network.dyn_peer[61]  lookupTimeSig:vector  ETV
vector 582125  Network.dyn_peer[62]  lookupHopsSig:vector  ETV
vector 582124  Network.dyn_peer[62]  lookupTimeSig:vector  ETV
vector 582101  Network.dyn_peer[50]  lookupHopsSig:vector  ETV
vector 582100  Network.dyn_peer[50]  lookupTimeSig:vector  ETV
vector 582077  Network.dyn_peer[38]  lookupHopsSig:vector  ETV
vector 582076  Network.dyn_peer[38]  lookupTimeSig:vector  ETV
vector 582091  Network.dyn_peer[45]  lookupHopsSig:vector  ETV
vector 582090  Network.dyn_peer[45]  lookupTimeSig:vector  ETV
vector 582107  Network.dyn_peer[53]  lookupHopsSig:vector  ETV
vector 582106  Network.dyn_peer[53]  lookupTimeSig:vector  ETV
vector 582133  Network.dyn_peer[66]  lookupHopsSig:vector  ETV
vector 582132  Network.dyn_peer[66]  lookupTimeSig:vector  ETV
vector 582063  Network.dyn_peer[31]  lookupHopsSig:vector  ETV
vector 582062  Network.dyn_peer[31]  lookupTimeSig:vector  ETV
vector 582053  Network.dyn_peer[26]  lookupHopsSig:vector  ETV
vector 582052  Network.dyn_peer[26]  lookupTimeSig:vector  ETV
vector 582131  Network.dyn_peer[65]  lookupHopsSig:vector  ETV
vector 582130  Network.dyn_peer[65]  lookupTimeSig:vector  ETV
vector 582093  Network.dyn_peer[46]  lookupHopsSig:vector  ETV
vector 582092  Network.dyn_peer[46]  lookupTimeSig:vector  ETV
vector 582097  Network.dyn_peer[48]  lookupHopsSig:vector  ETV
vector 582096  Network.dyn_peer[48]  lookupTimeSig:vector  ETV
vector 582137  Network.dyn_peer[68]  lookupHopsSig:vector  ETV
vector 582136  Network.dyn_peer[68]  lookupTimeSig:vector  ETV
vector 582129  Network.dyn_peer[64]  lookupHopsSig:vector  ETV
vector 582128  Network.dyn_peer[64]  lookupTimeSig:vector  ETV
vector 582157  Network.dyn_peer[78]  lookupHopsSig:vector  ETV
vector 582156  Network.dyn_peer[78]  lookupTimeSig:vector  ETV
vector 582109  Network.dyn_peer[54]  lookupHopsSig:vector  ETV
vector 582108  Network.dyn_peer[54]  lookupTimeSig:vector  ETV
vector 582135  Network.dyn_peer[67]  lookupHopsSig:vector  ETV
vector 582134  Network.dyn_peer[67]  lookupTimeSig:vector  ETV
vector 582151  Network.dyn_peer[75]  lookupHopsSig:vector  ETV
vector 582150  Network.dyn_peer[75]  lookupTimeSig:vector  ETV
vector 582127  Network.dyn_peer[63]  lookupHopsSig:vector  ETV
vector 582126  Network.dyn_peer[63]  lookupTimeSig:vector  ETV
vector 582143  Network.dyn_peer[71]  lookupHopsSig:vector  ETV
vector 582142  Network.dyn_peer[71]  lookupTimeSig:vector  ETV
vector 582187  Network.dyn_peer[93]  lookupHopsSig:vector  ETV
vector 582186  Network.dyn_peer[93]  lookupTimeSig:vector  ETV
vector 582163  Network.dyn_peer[81]  lookupHopsSig:vector  ETV
vector 582162  Network.dyn_peer[81]  lookupTimeSig:vector  ETV
vector 582113  Network.dyn_peer[56]  lookupHopsSig:vector  ETV
vector 582112  Network.dyn_peer[56]  lookupTimeSig:vector  ETV
vector 582075  Network.dyn_peer[37]  lookupHopsSig:vector  ETV
vector 582074  Network.dyn_peer[37]  lookupTimeSig:vector  ETV
vector 582155  Network.dyn_peer[77]  lookupHopsSig:vector  ETV
vector 582154  Network.dyn_peer[77]  lookupTimeSig:vector  ETV
vector 582145  Network.dyn_peer[72]  lookupHopsSig:vector  ETV
vector 582144  Network.dyn_peer[72]  lookupTimeSig:vector  ETV
vector 582071  Network.dyn_peer[35]  lookupHopsSig:vector  ETV
vector 582070  Network.dyn_peer[35]  lookupTimeSig:vector  ETV
vector 582199  Network.dyn_peer[99]  lookupHopsSig:vector  ETV
vector 582198  Network.dyn_peer[99]  lookupTimeSig:vector  ETV
vector 582177  Network.dyn_peer[88]  lookupHopsSig:vector  ETV
vector 582176  Network.dyn_peer[88]  lookupTimeSig:vector  ETV
vector 582205  Network.dyn_peer[102]  lookupHopsSig:vector  ETV
vector 582204  Network.dyn_peer[102]  lookupTimeSig:vector  ETV
vector 582171  Network.dyn_peer[85]  lookupHopsSig:vector  ETV
vector 582170  Network.dyn_peer[85]  lookupTimeSig:vector  ETV
vector 582085  Network.dyn_peer[42]  lookupHopsSig:vector  ETV
vector 582084  Network.dyn_peer[42]  lookupTimeSig:vector  ETV
vector 582141  Network.dyn_peer[70]  lookupHopsSig:vector  ETV
vector 582140  Network.dyn_peer[70]  lookupTimeSig:vector  ETV
vector 582117  Network.dyn_peer[58]  lookupHopsSig:vector  ETV
vector 582116  Network.dyn_peer[58]  lookupTimeSig:vector  ETV
vector 582197  Network.dyn_peer[98]  lookupHopsSig:vector  ETV
vector 582196  Network.dyn_peer[98]  lookupTimeSig:vector  ETV
vector 582161  Network.dyn_peer[80]  lookupHopsSig:vector  ETV
vector 582160  Network.dyn_peer[80]  lookupTimeSig:vector  ETV
vector 582179  Network.dyn_peer[89]  lookupHopsSig:vector  ETV
vector 582178  Network.dyn_peer[89]  lookupTimeSig:vector  ETV
vector 582181  Network.dyn_peer[90]  lookupHopsSig:vector  ETV
vector 582180  Network.dyn_peer[90]  lookupTimeSig:vector  ETV
vector 582121  Network.dyn_peer[60]  lookupHopsSig:vector  ETV
vector 582120  Network.dyn_peer[60]  lookupTimeSig:vector  ETV
vector 582147  Network.dyn_peer[73]  lookupHopsSig:vector  ETV
vector 582146  Network.dyn_peer[73]  lookupTimeSig:vector  ETV
vector 582201  Network.dyn_peer[100]  lookupHopsSig:vector  ETV
vector 582200  Network.dyn_peer[100]  lookupTimeSig:vector  ETV
vector 582173  Network.dyn_peer[86]  lookupHopsSig:vector  ETV
vector 582172  Network.dyn_peer[86]  lookupTimeSig:vector  ETV
vector 582099  Network.dyn_peer[49]  lookupHopsSig:vector  ETV
vector 582098  Network.dyn_peer[49]  lookupTimeSig:vector  ETV
vector 582227  Network.dyn_peer[113]  lookupHopsSig:vector  ETV
vector 582226  Network.dyn_peer[113]  lookupTimeSig:vector  ETV
vector 582165  Network.dyn_peer[82]  lookupHopsSig:vector  ETV
vector 582164  Network.dyn_peer[82]  lookupTimeSig:vector  ETV
vector 582217  Network.dyn_peer[108]  lookupHopsSig:vector  ETV
vector 582216  Network.dyn_peer[108]  lookupTimeSig:vector  ETV
vector 582167  Network.dyn_peer[83]  lookupHopsSig:vector  ETV
vector 582166  Network.dyn_peer[83]  lookupTimeSig:vector  ETV
vector 582231  Network.dyn_peer[115]  lookupHopsSig:vector  ETV
vector 582230  Network.dyn_peer[115]  lookupTimeSig:vector  ETV
vector 582233  Network.dyn_peer[116]  lookupHopsSig:vector  ETV
vector 582232  Network.dyn_peer[116]  lookupTimeSig:vector  ETV
vector 582223  Network.dyn_peer[111]  lookupHopsSig:vector  ETV
vector 582222  Network.dyn_peer[111]  lookupTimeSig:vector  ETV
vector 582149  Network.dyn_peer[74]  lookupHopsSig:vector  ETV
vector 582148  Network.dyn_peer[74]  lookupTimeSig:vector  ETV
vector 582195  Network.dyn_peer[97]  lookupHopsSig:vector  ETV
vector 582194  Network.dyn_peer[97]  lookupTimeSig:vector  ETV
vector 582119  Network.dyn_peer[59]  lookupHopsSig:vector  ETV
vector 582118  Network.dyn_peer[59]  lookupTimeSig:vector  ETV
vector 582183  Network.dyn_peer[91]  lookupHopsSig:vector  ETV
vector 582182  Network.dyn_peer[91]  lookupTimeSig:vector  ETV
vector 582209  Network.dyn_peer[104]  lookupHopsSig:vector  ETV
vector 582208  Network.dyn_peer[104]  lookupTimeSig:vector  ETV
vector 582159  Network.dyn_peer[79]  lookupHopsSig:vector  ETV
vector 582158  Network.dyn_peer[79]  lookupTimeSig:vector  ETV
vector 582185  Network.dyn_peer[92]  lookupHopsSig:vector  ETV
vector 582184  Network.dyn_peer[92]  lookupTimeSig:vector  ETV
vector 582225  Network.dyn_peer[112]  lookupHopsSig:vector  ETV
vector 582224  Network.dyn_peer[112]  lookupTimeSig:vector  ETV
vector 582175  Network.dyn_peer[87]  lookupHopsSig:vector  ETV
vector 582174  Network.dyn_peer[87]  lookupTimeSig:vector  ETV
vector 582139  Network.dyn_peer[69]  lookupHopsSig:vector  ETV
vector 582138  Network.dyn_peer[69]  lookupTimeSig:vector  ETV
vector 582235  Network.dyn_peer[117]  lookupHopsSig:vector  ETV
vector 582234  Network.dyn_peer[117]  lookupTimeSig:vector  ETV
vector 582263  Network.dyn_peer[131]  lookupHopsSig:vector  ETV
vector 582262  Network.dyn_peer[131]  lookupTimeSig:vector  ETV
vector 582251  Network.dyn_peer[125]  lookupHopsSig:vector  ETV
vector 582250  Network.dyn_peer[125]  lookupTimeSig:vector  ETV
vector 582229  Network.dyn_peer[114]  lookupHopsSig:vector  ETV
vector 582228  Network.dyn_peer[114]  lookupTimeSig:vector  ETV
vector 582153  Network.dyn_peer[76]  lookupHopsSig:vector  ETV
vector 582152  Network.dyn_peer[76]  lookupTimeSig:vector  ETV
vector 582255  Network.dyn_peer[127]  lookupHopsSig:vector  ETV
vector 582254  Network.dyn_peer[127]  lookupTimeSig:vector  ETV
vector 582193  Network.dyn_peer[96]  lookupHopsSig:vector  ETV
vector 582192  Network.dyn_peer[96]  lookupTimeSig:vector  ETV
vector 582219  Network.dyn_peer[109]  lookupHopsSig:vector  ETV
vector 582218  Network.dyn_peer[109]  lookupTimeSig:vector  ETV
vector 582299  Network.dyn_peer[149]  lookupHopsSig:vector  ETV
vector 582298  Network.dyn_peer[149]  lookupTimeSig:vector  ETV
vector 582191  Network.dyn_peer[95]  lookupHopsSig:vector  ETV
vector 582190  Network.dyn_peer[95]  lookupTimeSig:vector  ETV
vector 582273  Network.dyn_peer[136]  lookupHopsSig:vector  ETV
vector 582272  Network.dyn_peer[136]  lookupTimeSig:vector  ETV
vector 582325  Network.dyn_peer[162]  lookupHopsSig:vector  ETV
vector 582324  Network.dyn_peer[162]  lookupTimeSig:vector  ETV
vector 582287  Network.dyn_peer[143]  lookupHopsSig:vector  ETV
vector 582286  Network.dyn_peer[143]  lookupTimeSig:vector  ETV
vector 582213  Network.dyn_peer[106]  lookupHopsSig:vector  ETV
vector 582212  Network.dyn_peer[106]  lookupTimeSig:vector  ETV
vector 582317  Network.dyn_peer[158]  lookupHopsSig:vector  ETV
vector 582316  Network.dyn_peer[158]  lookupTimeSig:vector  ETV
vector 582295  Network.dyn_peer[147]  lookupHopsSig:vector  ETV
vector 582294  Network.dyn_peer[147]  lookupTimeSig:vector  ETV
vector 582271  Network.dyn_peer[135]  lookupHopsSig:vector  ETV
vector 582270  Network.dyn_peer[135]  lookupTimeSig:vector  ETV
vector 582247  Network.dyn_peer[123]  lookupHopsSig:vector  ETV
vector 582246  Network.dyn_peer[123]  lookupTimeSig:vector  ETV
vector 582313  Network.dyn_peer[156]  lookupHopsSig:vector  ETV
vector 582312  Network.dyn_peer[156]  lookupTimeSig:vector  ETV
vector 582315  Network.dyn_peer[157]  lookupHopsSig:vector  ETV
vector 582314  Network.dyn_peer[157]  lookupTimeSig:vector  ETV
vector 582341  Network.dyn_peer[170]  lookupHopsSig:vector  ETV
vector 582340  Network.dyn_peer[170]  lookupTimeSig:vector  ETV
vector 582291  Network.dyn_peer[145]  lookupHopsSig:vector  ETV
vector 582290  Network.dyn_peer[145]  lookupTimeSig:vector  ETV
vector 582241  Network.dyn_peer[120]  lookupHopsSig:vector  ETV
vector 582240  Network.dyn_peer[120]  lookupTimeSig:vector  ETV
vector 582267  Network.dyn_peer[133]  lookupHopsSig:vector  ETV
vector 582266  Network.dyn_peer[133]  lookupTimeSig:vector  ETV
vector 582207  Network.dyn_peer[103]  lookupHopsSig:vector  ETV
vector 582206  Network.dyn_peer[103]  lookupTimeSig:vector  ETV
vector 582259  Network.dyn_peer[129]  lookupHopsSig:vector  ETV
vector 582258  Network.dyn_peer[129]  lookupTimeSig:vector  ETV
vector 582221  Network.dyn_peer[110]  lookupHopsSig:vector  ETV
vector 582220  Network.dyn_peer[110]  lookupTimeSig:vector  ETV
vector 582249  Network.dyn_peer[124]  lookupHopsSig:vector  ETV
vector 582248  Network.dyn_peer[124]  lookupTimeSig:vector  ETV
vector 582275  Network.dyn_peer[137]  lookupHopsSig:vector  ETV
vector 582274  Network.dyn_peer[137]  lookupTimeSig:vector  ETV
vector 582337  Network.dyn_peer[168]  lookupHopsSig:vector  ETV
vector 582336  Network.dyn_peer[168]  lookupTimeSig:vector  ETV
vector 582303  Network.dyn_peer[151]  lookupHopsSig:vector  ETV
vector 582302  Network.dyn_peer[151]  lookupTimeSig:vector  ETV
vector 582203  Network.dyn_peer[101]  lookupHopsSig:vector  ETV
vector 582202  Network.dyn_peer[101]  lookupTimeSig:vector  ETV
vector 582169  Network.dyn_peer[84]  lookupHopsSig:vector  ETV
vector 582168  Network.dyn_peer[84]  lookupTimeSig:vector  ETV
vector 582361  Network.dyn_peer[180]  lookupHopsSig:vector  ETV
vector 582360  Network.dyn_peer[180]  lookupTimeSig:vector  ETV
vector 582239  Network.dyn_peer[119]  lookupHopsSig:vector  ETV
vector 582238  Network.dyn_peer[119]  lookupTimeSig:vector  ETV
vector 582329  Network.dyn_peer[164]  lookupHopsSig:vector  ETV
vector 582328  Network.dyn_peer[164]  lookupTimeSig:vector  ETV
vector 582285  Network.dyn_peer[142]  lookupHopsSig:vector  ETV
vector 582284  Network.dyn_peer[142]  lookupTimeSig:vector  ETV
vector 582311  Network.dyn_peer[155]  lookupHopsSig:vector  ETV
vector 582310  Network.dyn_peer[155]  lookupTimeSig:vector  ETV
vector 582261  Network.dyn_peer[130]  lookupHopsSig:vector  ETV
vector 582260  Network.dyn_peer[130]  lookupTimeSig:vector  ETV
vector 582189  Network.dyn_peer[94]  lookupHopsSig:vector  ETV
vector 582188  Network.dyn_peer[94]  lookupTimeSig:vector  ETV
vector 582215  Network.dyn_peer[107]  lookupHopsSig:vector  ETV
vector 582214  Network.dyn_peer[107]  lookupTimeSig:vector  ETV
vector 582319  Network.dyn_peer[159]  lookupHopsSig:vector  ETV
vector 582318  Network.dyn_peer[159]  lookupTimeSig:vector  ETV
vector 582321  Network.dyn_peer[160]  lookupHopsSig:vector  ETV
vector 582320  Network.dyn_peer[160]  lookupTimeSig:vector  ETV
vector 582309  Network.dyn_peer[154]  lookupHopsSig:vector  ETV
vector 582308  Network.dyn_peer[154]  lookupTimeSig:vector  ETV
vector 582339  Network.dyn_peer[169]  lookupHopsSig:vector  ETV
vector 582338  Network.dyn_peer[169]  lookupTimeSig:vector  ETV
vector 582305  Network.dyn_peer[152]  lookupHopsSig:vector  ETV
vector 582304  Network.dyn_peer[152]  lookupTimeSig:vector  ETV
vector 582257  Network.dyn_peer[128]  lookupHopsSig:vector  ETV
vector 582256  Network.dyn_peer[128]  lookupTimeSig:vector  ETV
vector 582253  Network.dyn_peer[126]  lookupHopsSig:vector  ETV
vector 582252  Network.dyn_peer[126]  lookupTimeSig:vector  ETV
vector 582373  Network.dyn_peer[186]  lookupHopsSig:vector  ETV
vector 582372  Network.dyn_peer[186]  lookupTimeSig:vector  ETV
vector 582351  Network.dyn_peer[175]  lookupHopsSig:vector  ETV
vector 582350  Network.dyn_peer[175]  lookupTimeSig:vector  ETV
vector 582265  Network.dyn_peer[132]  lookupHopsSig:vector  ETV
vector 582264  Network.dyn_peer[132]  lookupTimeSig:vector  ETV
vector 582283  Network.dyn_peer[141]  lookupHopsSig:vector  ETV
vector 582282  Network.dyn_peer[141]  lookupTimeSig:vector  ETV
vector 582387  Network.dyn_peer[193]  lookupHopsSig:vector  ETV
vector 582386  Network.dyn_peer[193]  lookupTimeSig:vector  ETV
vector 582403  Network.dyn_peer[201]  lookupHopsSig:vector  ETV
vector 582402  Network.dyn_peer[201]  lookupTimeSig:vector  ETV
vector 582365  Network.dyn_peer[182]  lookupHopsSig:vector  ETV
vector 582364  Network.dyn_peer[182]  lookupTimeSig:vector  ETV
vector 582383  Network.dyn_peer[191]  lookupHopsSig:vector  ETV
vector 582382  Network.dyn_peer[191]  lookupTimeSig:vector  ETV
vector 582281  Network.dyn_peer[140]  lookupHopsSig:vector  ETV
vector 582280  Network.dyn_peer[140]  lookupTimeSig:vector  ETV
vector 582269  Network.dyn_peer[134]  lookupHopsSig:vector  ETV
vector 582268  Network.dyn_peer[134]  lookupTimeSig:vector  ETV
vector 582385  Network.dyn_peer[192]  lookupHopsSig:vector  ETV
vector 582384  Network.dyn_peer[192]  lookupTimeSig:vector  ETV
vector 582347  Network.dyn_peer[173]  lookupHopsSig:vector  ETV
vector 582346  Network.dyn_peer[173]  lookupTimeSig:vector  ETV
vector 582245  Network.dyn_peer[122]  lookupHopsSig:vector  ETV
vector 582244  Network.dyn_peer[122]  lookupTimeSig:vector  ETV
vector 582297  Network.dyn_peer[148]  lookupHopsSig:vector  ETV
vector 582296  Network.dyn_peer[148]  lookupTimeSig:vector  ETV
vector 582401  Network.dyn_peer[200]  lookupHopsSig:vector  ETV
vector 582400  Network.dyn_peer[200]  lookupTimeSig:vector  ETV
vector 582363  Network.dyn_peer[181]  lookupHopsSig:vector  ETV
vector 582362  Network.dyn_peer[181]  lookupTimeSig:vector  ETV
vector 582301  Network.dyn_peer[150]  lookupHopsSig:vector  ETV
vector 582300  Network.dyn_peer[150]  lookupTimeSig:vector  ETV
vector 582331  Network.dyn_peer[165]  lookupHopsSig:vector  ETV
vector 582330  Network.dyn_peer[165]  lookupTimeSig:vector  ETV
vector 582359  Network.dyn_peer[179]  lookupHopsSig:vector  ETV
vector 582358  Network.dyn_peer[179]  lookupTimeSig:vector  ETV
vector 582349  Network.dyn_peer[174]  lookupHopsSig:vector  ETV
vector 582348  Network.dyn_peer[174]  lookupTimeSig:vector  ETV
vector 582211  Network.dyn_peer[105]  lookupHopsSig:vector  ETV
vector 582210  Network.dyn_peer[105]  lookupTimeSig:vector  ETV
vector 582367  Network.dyn_peer[183]  lookupHopsSig:vector  ETV
vector 582366  Network.dyn_peer[183]  lookupTimeSig:vector  ETV
vector 582381  Network.dyn_peer[190]  lookupHopsSig:vector  ETV
vector 582380  Network.dyn_peer[190]  lookupTimeSig:vector  ETV
vector 582293  Network.dyn_peer[146]  lookupHopsSig:vector  ETV
vector 582292  Network.dyn_peer[146]  lookupTimeSig:vector  ETV
vector 582377  Network.dyn_peer[188]  lookupHopsSig:vector  ETV
vector 582376  Network.dyn_peer[188]  lookupTimeSig:vector  ETV
vector 582353  Network.dyn_peer[176]  lookupHopsSig:vector  ETV
vector 582352  Network.dyn_peer[176]  lookupTimeSig:vector  ETV
vector 582379  Network.dyn_peer[189]  lookupHopsSig:vector  ETV
vector 582378  Network.dyn_peer[189]  lookupTimeSig:vector  ETV
vector 582343  Network.dyn_peer[171]  lookupHopsSig:vector  ETV
vector 582342  Network.dyn_peer[171]  lookupTimeSig:vector  ETV
vector 582333  Network.dyn_peer[166]  lookupHopsSig:vector  ETV
vector 582332  Network.dyn_peer[166]  lookupTimeSig:vector  ETV
vector 582323  Network.dyn_peer[161]  lookupHopsSig:vector  ETV
vector 582322  Network.dyn_peer[161]  lookupTimeSig:vector  ETV
vector 582495  Network.dyn_peer[247]  lookupHopsSig:vector  ETV
vector 582494  Network.dyn_peer[247]  lookupTimeSig:vector  ETV
vector 582433  Network.dyn_peer[216]  lookupHopsSig:vector  ETV
vector 582432  Network.dyn_peer[216]  lookupTimeSig:vector  ETV
vector 582503  Network.dyn_peer[251]  lookupHopsSig:vector  ETV
vector 582502  Network.dyn_peer[251]  lookupTimeSig:vector  ETV
vector 582443  Network.dyn_peer[221]  lookupHopsSig:vector  ETV
vector 582442  Network.dyn_peer[221]  lookupTimeSig:vector  ETV
vector 582405  Network.dyn_peer[202]  lookupHopsSig:vector  ETV
vector 582404  Network.dyn_peer[202]  lookupTimeSig:vector  ETV
vector 582279  Network.dyn_peer[139]  lookupHopsSig:vector  ETV
vector 582278  Network.dyn_peer[139]  lookupTimeSig:vector  ETV
vector 582345  Network.dyn_peer[172]  lookupHopsSig:vector  ETV
vector 582344  Network.dyn_peer[172]  lookupTimeSig:vector  ETV
vector 582243  Network.dyn_peer[121]  lookupHopsSig:vector  ETV
vector 582242  Network.dyn_peer[121]  lookupTimeSig:vector  ETV
vector 582335  Network.dyn_peer[167]  lookupHopsSig:vector  ETV
vector 582334  Network.dyn_peer[167]  lookupTimeSig:vector  ETV
vector 582439  Network.dyn_peer[219]  lookupHopsSig:vector  ETV
vector 582438  Network.dyn_peer[219]  lookupTimeSig:vector  ETV
vector 582465  Network.dyn_peer[232]  lookupHopsSig:vector  ETV
vector 582464  Network.dyn_peer[232]  lookupTimeSig:vector  ETV
vector 582389  Network.dyn_peer[194]  lookupHopsSig:vector  ETV
vector 582388  Network.dyn_peer[194]  lookupTimeSig:vector  ETV
vector 582417  Network.dyn_peer[208]  lookupHopsSig:vector  ETV
vector 582416  Network.dyn_peer[208]  lookupTimeSig:vector  ETV
vector 582431  Network.dyn_peer[215]  lookupHopsSig:vector  ETV
vector 582430  Network.dyn_peer[215]  lookupTimeSig:vector  ETV
vector 582393  Network.dyn_peer[196]  lookupHopsSig:vector  ETV
vector 582392  Network.dyn_peer[196]  lookupTimeSig:vector  ETV
vector 582525  Network.dyn_peer[262]  lookupHopsSig:vector  ETV
vector 582524  Network.dyn_peer[262]  lookupTimeSig:vector  ETV
vector 582423  Network.dyn_peer[211]  lookupHopsSig:vector  ETV
vector 582422  Network.dyn_peer[211]  lookupTimeSig:vector  ETV
vector 582449  Network.dyn_peer[224]  lookupHopsSig:vector  ETV
vector 582448  Network.dyn_peer[224]  lookupTimeSig:vector  ETV
vector 582505  Network.dyn_peer[252]  lookupHopsSig:vector  ETV
vector 582504  Network.dyn_peer[252]  lookupTimeSig:vector  ETV
vector 582289  Network.dyn_peer[144]  lookupHopsSig:vector  ETV
vector 582288  Network.dyn_peer[144]  lookupTimeSig:vector  ETV
vector 582483  Network.dyn_peer[241]  lookupHopsSig:vector  ETV
vector 582482  Network.dyn_peer[241]  lookupTimeSig:vector  ETV
vector 582471  Network.dyn_peer[235]  lookupHopsSig:vector  ETV
vector 582470  Network.dyn_peer[235]  lookupTimeSig:vector  ETV
vector 582499  Network.dyn_peer[249]  lookupHopsSig:vector  ETV
vector 582498  Network.dyn_peer[249]  lookupTimeSig:vector  ETV
vector 582411  Network.dyn_peer[205]  lookupHopsSig:vector  ETV
vector 582410  Network.dyn_peer[205]  lookupTimeSig:vector  ETV
vector 582527  Network.dyn_peer[263]  lookupHopsSig:vector  ETV
vector 582526  Network.dyn_peer[263]  lookupTimeSig:vector  ETV
vector 582425  Network.dyn_peer[212]  lookupHopsSig:vector  ETV
vector 582424  Network.dyn_peer[212]  lookupTimeSig:vector  ETV
vector 582517  Network.dyn_peer[258]  lookupHopsSig:vector  ETV
vector 582516  Network.dyn_peer[258]  lookupTimeSig:vector  ETV
vector 582419  Network.dyn_peer[209]  lookupHopsSig:vector  ETV
vector 582418  Network.dyn_peer[209]  lookupTimeSig:vector  ETV
vector 582369  Network.dyn_peer[184]  lookupHopsSig:vector  ETV
vector 582368  Network.dyn_peer[184]  lookupTimeSig:vector  ETV
vector 582487  Network.dyn_peer[243]  lookupHopsSig:vector  ETV
vector 582486  Network.dyn_peer[243]  lookupTimeSig:vector  ETV
vector 582479  Network.dyn_peer[239]  lookupHopsSig:vector  ETV
vector 582478  Network.dyn_peer[239]  lookupTimeSig:vector  ETV
vector 582481  Network.dyn_peer[240]  lookupHopsSig:vector  ETV
vector 582480  Network.dyn_peer[240]  lookupTimeSig:vector  ETV
vector 582355  Network.dyn_peer[177]  lookupHopsSig:vector  ETV
vector 582354  Network.dyn_peer[177]  lookupTimeSig:vector  ETV
vector 582397  Network.dyn_peer[198]  lookupHopsSig:vector  ETV
vector 582396  Network.dyn_peer[198]  lookupTimeSig:vector  ETV
vector 582567  Network.dyn_peer[283]  lookupHopsSig:vector  ETV
vector 582566  Network.dyn_peer[283]  lookupTimeSig:vector  ETV
vector 582521  Network.dyn_peer[260]  lookupHopsSig:vector  ETV
vector 582520  Network.dyn_peer[260]  lookupTimeSig:vector  ETV
vector 582357  Network.dyn_peer[178]  lookupHopsSig:vector  ETV
vector 582356  Network.dyn_peer[178]  lookupTimeSig:vector  ETV
vector 582371  Network.dyn_peer[185]  lookupHopsSig:vector  ETV
vector 582370  Network.dyn_peer[185]  lookupTimeSig:vector  ETV
vector 582407  Network.dyn_peer[203]  lookupHopsSig:vector  ETV
vector 582406  Network.dyn_peer[203]  lookupTimeSig:vector  ETV
vector 582459  Network.dyn_peer[229]  lookupHopsSig:vector  ETV
vector 582458  Network.dyn_peer[229]  lookupTimeSig:vector  ETV
vector 582539  Network.dyn_peer[269]  lookupHopsSig:vector  ETV
vector 582538  Network.dyn_peer[269]  lookupTimeSig:vector  ETV
vector 582375  Network.dyn_peer[187]  lookupHopsSig:vector  ETV
vector 582374  Network.dyn_peer[187]  lookupTimeSig:vector  ETV
vector 582237  Network.dyn_peer[118]  lookupHopsSig:vector  ETV
vector 582236  Network.dyn_peer[118]  lookupTimeSig:vector  ETV
vector 582445  Network.dyn_peer[222]  lookupHopsSig:vector  ETV
vector 582444  Network.dyn_peer[222]  lookupTimeSig:vector  ETV
vector 582435  Network.dyn_peer[217]  lookupHopsSig:vector  ETV
vector 582434  Network.dyn_peer[217]  lookupTimeSig:vector  ETV
vector 582501  Network.dyn_peer[250]  lookupHopsSig:vector  ETV
vector 582500  Network.dyn_peer[250]  lookupTimeSig:vector  ETV
vector 582491  Network.dyn_peer[245]  lookupHopsSig:vector  ETV
vector 582490  Network.dyn_peer[245]  lookupTimeSig:vector  ETV
vector 582469  Network.dyn_peer[234]  lookupHopsSig:vector  ETV
vector 582468  Network.dyn_peer[234]  lookupTimeSig:vector  ETV
vector 582457  Network.dyn_peer[228]  lookupHopsSig:vector  ETV
vector 582456  Network.dyn_peer[228]  lookupTimeSig:vector  ETV
vector 582395  Network.dyn_peer[197]  lookupHopsSig:vector  ETV
vector 582394  Network.dyn_peer[197]  lookupTimeSig:vector  ETV