version 2
run Stability-130-20130521-22:32:57-23591
attr configname Stability
attr datetime 20130521-22:32:57
attr experiment Stability
attr inifile omnetpp.ini
attr iterationvars $0=0.5
attr iterationvars2 "$0=0.5, $repetition=10"
attr measurement $0=0.5
attr network Network
attr processid 23591
attr repetition 10
attr replication #10
attr resultdir results
attr runnumber 130
attr seedset 130

vector 260001  Network.dyn_peer[0]  lookupHopsSig:vector  ETV
vector 260000  Network.dyn_peer[0]  lookupTimeSig:vector  ETV
vector 260003  Network.dyn_peer[1]  lookupHopsSig:vector  ETV
vector 260002  Network.dyn_peer[1]  lookupTimeSig:vector  ETV
vector 260005  Network.dyn_peer[2]  lookupHopsSig:vector  ETV
vector 260004  Network.dyn_peer[2]  lookupTimeSig:vector  ETV
vector 260007  Network.dyn_peer[3]  lookupHopsSig:vector  ETV
vector 260006  Network.dyn_peer[3]  lookupTimeSig:vector  ETV
vector 260009  Network.dyn_peer[4]  lookupHopsSig:vector  ETV
vector 260008  Network.dyn_peer[4]  lookupTimeSig:vector  ETV
vector 260011  Network.dyn_peer[5]  lookupHopsSig:vector  ETV
vector 260010  Network.dyn_peer[5]  lookupTimeSig:vector  ETV
vector 260013  Network.dyn_peer[6]  lookupHopsSig:vector  ETV
vector 260012  Network.dyn_peer[6]  lookupTimeSig:vector  ETV
vector 260015  Network.dyn_peer[7]  lookupHopsSig:vector  ETV
vector 260014  Network.dyn_peer[7]  lookupTimeSig:vector  ETV
vector 260017  Network.dyn_peer[8]  lookupHopsSig:vector  ETV
vector 260016  Network.dyn_peer[8]  lookupTimeSig:vector  ETV
vector 260019  Network.dyn_peer[9]  lookupHopsSig:vector  ETV
vector 260018  Network.dyn_peer[9]  lookupTimeSig:vector  ETV
vector 260021  Network.dyn_peer[10]  lookupHopsSig:vector  ETV
vector 260020  Network.dyn_peer[10]  lookupTimeSig:vector  ETV
vector 260023  Network.dyn_peer[11]  lookupHopsSig:vector  ETV
vector 260022  Network.dyn_peer[11]  lookupTimeSig:vector  ETV
vector 260025  Network.dyn_peer[12]  lookupHopsSig:vector  ETV
vector 260024  Network.dyn_peer[12]  lookupTimeSig:vector  ETV
vector 260027  Network.dyn_peer[13]  lookupHopsSig:vector  ETV
vector 260026  Network.dyn_peer[13]  lookupTimeSig:vector  ETV
vector 260029  Network.dyn_peer[14]  lookupHopsSig:vector  ETV
vector 260028  Network.dyn_peer[14]  lookupTimeSig:vector  ETV
vector 260031  Network.dyn_peer[15]  lookupHopsSig:vector  ETV
vector 260030  Network.dyn_peer[15]  lookupTimeSig:vector  ETV
vector 260033  Network.dyn_peer[16]  lookupHopsSig:vector  ETV
vector 260032  Network.dyn_peer[16]  lookupTimeSig:vector  ETV
vector 260035  Network.dyn_peer[17]  lookupHopsSig:vector  ETV
vector 260034  Network.dyn_peer[17]  lookupTimeSig:vector  ETV
vector 260037  Network.dyn_peer[18]  lookupHopsSig:vector  ETV
vector 260036  Network.dyn_peer[18]  lookupTimeSig:vector  ETV
vector 260039  Network.dyn_peer[19]  lookupHopsSig:vector  ETV
vector 260038  Network.dyn_peer[19]  lookupTimeSig:vector  ETV
vector 260041  Network.dyn_peer[20]  lookupHopsSig:vector  ETV
vector 260040  Network.dyn_peer[20]  lookupTimeSig:vector  ETV
vector 260043  Network.dyn_peer[21]  lookupHopsSig:vector  ETV
vector 260042  Network.dyn_peer[21]  lookupTimeSig:vector  ETV
vector 260045  Network.dyn_peer[22]  lookupHopsSig:vector  ETV
vector 260044  Network.dyn_peer[22]  lookupTimeSig:vector  ETV
vector 260047  Network.dyn_peer[23]  lookupHopsSig:vector  ETV
vector 260046  Network.dyn_peer[23]  lookupTimeSig:vector  ETV
vector 260049  Network.dyn_peer[24]  lookupHopsSig:vector  ETV
vector 260048  Network.dyn_peer[24]  lookupTimeSig:vector  ETV
vector 260051  Network.dyn_peer[25]  lookupHopsSig:vector  ETV
vector 260050  Network.dyn_peer[25]  lookupTimeSig:vector  ETV
vector 260053  Network.dyn_peer[26]  lookupHopsSig:vector  ETV
vector 260052  Network.dyn_peer[26]  lookupTimeSig:vector  ETV
vector 260055  Network.dyn_peer[27]  lookupHopsSig:vector  ETV
vector 260054  Network.dyn_peer[27]  lookupTimeSig:vector  ETV
vector 260057  Network.dyn_peer[28]  lookupHopsSig:vector  ETV
vector 260056  Network.dyn_peer[28]  lookupTimeSig:vector  ETV
vector 260059  Network.dyn_peer[29]  lookupHopsSig:vector  ETV
vector 260058  Network.dyn_peer[29]  lookupTimeSig:vector  ETV
vector 260061  Network.dyn_peer[30]  lookupHopsSig:vector  ETV
vector 260060  Network.dyn_peer[30]  lookupTimeSig:vector  ETV
vector 260063  Network.dyn_peer[31]  lookupHopsSig:vector  ETV
vector 260062  Network.dyn_peer[31]  lookupTimeSig:vector  ETV
vector 260065  Network.dyn_peer[32]  lookupHopsSig:vector  ETV
vector 260064  Network.dyn_peer[32]  lookupTimeSig:vector  ETV
vector 260067  Network.dyn_peer[33]  lookupHopsSig:vector  ETV
vector 260066  Network.dyn_peer[33]  lookupTimeSig:vector  ETV
vector 260069  Network.dyn_peer[34]  lookupHopsSig:vector  ETV
vector 260068  Network.dyn_peer[34]  lookupTimeSig:vector  ETV
vector 260071  Network.dyn_peer[35]  lookupHopsSig:vector  ETV
vector 260070  Network.dyn_peer[35]  lookupTimeSig:vector  ETV
vector 260073  Network.dyn_peer[36]  lookupHopsSig:vector  ETV
vector 260072  Network.dyn_peer[36]  lookupTimeSig:vector  ETV
vector 260075  Network.dyn_peer[37]  lookupHopsSig:vector  ETV
vector 260074  Network.dyn_peer[37]  lookupTimeSig:vector  ETV
vector 260077  Network.dyn_peer[38]  lookupHopsSig:vector  ETV
vector 260076  Network.dyn_peer[38]  lookupTimeSig:vector  ETV
vector 260079  Network.dyn_peer[39]  lookupHopsSig:vector  ETV
vector 260078  Network.dyn_peer[39]  lookupTimeSig:vector  ETV
vector 260081  Network.dyn_peer[40]  lookupHopsSig:vector  ETV
vector 260080  Network.dyn_peer[40]  lookupTimeSig:vector  ETV
vector 260083  Network.dyn_peer[41]  lookupHopsSig:vector  ETV
vector 260082  Network.dyn_peer[41]  lookupTimeSig:vector  ETV
vector 260085  Network.dyn_peer[42]  lookupHopsSig:vector  ETV
vector 260084  Network.dyn_peer[42]  lookupTimeSig:vector  ETV
vector 260087  Network.dyn_peer[43]  lookupHopsSig:vector  ETV
vector 260086  Network.dyn_peer[43]  lookupTimeSig:vector  ETV
vector 260089  Network.dyn_peer[44]  lookupHopsSig:vector  ETV
vector 260088  Network.dyn_peer[44]  lookupTimeSig:vector  ETV
vector 260091  Network.dyn_peer[45]  lookupHopsSig:vector  ETV
vector 260090  Network.dyn_peer[45]  lookupTimeSig:vector  ETV
vector 260093  Network.dyn_peer[46]  lookupHopsSig:vector  ETV
vector 260092  Network.dyn_peer[46]  lookupTimeSig:vector  ETV
vector 260095  Network.dyn_peer[47]  lookupHopsSig:vector  ETV
vector 260094  Network.dyn_peer[47]  lookupTimeSig:vector  ETV
vector 260099  Network.dyn_peer[49]  lookupHopsSig:vector  ETV
vector 260098  Network.dyn_peer[49]  lookupTimeSig:vector  ETV
vector 260097  Network.dyn_peer[48]  lookupHopsSig:vector  ETV
vector 260096  Network.dyn_peer[48]  lookupTimeSig:vector  ETV
vector 260101  Network.dyn_peer[50]  lookupHopsSig:vector  ETV
vector 260100  Network.dyn_peer[50]  lookupTimeSig:vector  ETV
vector 260103  Network.dyn_peer[51]  lookupHopsSig:vector  ETV
vector 260102  Network.dyn_peer[51]  lookupTimeSig:vector  ETV
vector 260105  Network.dyn_peer[52]  lookupHopsSig:vector  ETV
vector 260104  Network.dyn_peer[52]  lookupTimeSig:vector  ETV
vector 260107  Network.dyn_peer[53]  lookupHopsSig:vector  ETV
vector 260106  Network.dyn_peer[53]  lookupTimeSig:vector  ETV
vector 260109  Network.dyn_peer[54]  lookupHopsSig:vector  ETV
vector 260108  Network.dyn_peer[54]  lookupTimeSig:vector  ETV
vector 260111  Network.dyn_peer[55]  lookupHopsSig:vector  ETV
vector 260110  Network.dyn_peer[55]  lookupTimeSig:vector  ETV
vector 260113  Network.dyn_peer[56]  lookupHopsSig:vector  ETV
vector 260112  Network.dyn_peer[56]  lookupTimeSig:vector  ETV
vector 260115  Network.dyn_peer[57]  lookupHopsSig:vector  ETV
vector 260114  Network.dyn_peer[57]  lookupTimeSig:vector  ETV
vector 260117  Network.dyn_peer[58]  lookupHopsSig:vector  ETV
vector 260116  Network.dyn_peer[58]  lookupTimeSig:vector  ETV
vector 260119  Network.dyn_peer[59]  lookupHopsSig:vector  ETV
vector 260118  Network.dyn_peer[59]  lookupTimeSig:vector  ETV
vector 260121  Network.dyn_peer[60]  lookupHopsSig:vector  ETV
vector 260120  Network.dyn_peer[60]  lookupTimeSig:vector  ETV
vector 260125  Network.dyn_peer[62]  lookupHopsSig:vector  ETV
vector 260124  Network.dyn_peer[62]  lookupTimeSig:vector  ETV
vector 260123  Network.dyn_peer[61]  lookupHopsSig:vector  ETV
vector 260122  Network.dyn_peer[61]  lookupTimeSig:vector  ETV
vector 260127  Network.dyn_peer[63]  lookupHopsSig:vector  ETV
vector 260126  Network.dyn_peer[63]  lookupTimeSig:vector  ETV
vector 260129  Network.dyn_peer[64]  lookupHopsSig:vector  ETV
vector 260128  Network.dyn_peer[64]  lookupTimeSig:vector  ETV
vector 260131  Network.dyn_peer[65]  lookupHopsSig:vector  ETV
vector 260130  Network.dyn_peer[65]  lookupTimeSig:vector  ETV
vector 260133  Network.dyn_peer[66]  lookupHopsSig:vector  ETV
vector 260132  Network.dyn_peer[66]  lookupTimeSig:vector  ETV
vector 260135  Network.dyn_peer[67]  lookupHopsSig:vector  ETV
vector 260134  Network.dyn_peer[67]  lookupTimeSig:vector  ETV
vector 260137  Network.dyn_peer[68]  lookupHopsSig:vector  ETV
vector 260136  Network.dyn_peer[68]  lookupTimeSig:vector  ETV
vector 260139  Network.dyn_peer[69]  lookupHopsSig:vector  ETV
vector 260138  Network.dyn_peer[69]  lookupTimeSig:vector  ETV
vector 260141  Network.dyn_peer[70]  lookupHopsSig:vector  ETV
vector 260140  Network.dyn_peer[70]  lookupTimeSig:vector  ETV
vector 260143  Network.dyn_peer[71]  lookupHopsSig:vector  ETV
vector 260142  Network.dyn_peer[71]  lookupTimeSig:vector  ETV
vector 260145  Network.dyn_peer[72]  lookupHopsSig:vector  ETV
vector 260144  Network.dyn_peer[72]  lookupTimeSig:vector  ETV
vector 260147  Network.dyn_peer[73]  lookupHopsSig:vector  ETV
vector 260146  Network.dyn_peer[73]  lookupTimeSig:vector  ETV
vector 260149  Network.dyn_peer[74]  lookupHopsSig:vector  ETV
vector 260148  Network.dyn_peer[74]  lookupTimeSig:vector  ETV
vector 260151  Network.dyn_peer[75]  lookupHopsSig:vector  ETV
vector 260150  Network.dyn_peer[75]  lookupTimeSig:vector  ETV
vector 260153  Network.dyn_peer[76]  lookupHopsSig:vector  ETV
vector 260152  Network.dyn_peer[76]  lookupTimeSig:vector  ETV
vector 260157  Network.dyn_peer[78]  lookupHopsSig:vector  ETV
vector 260156  Network.dyn_peer[78]  lookupTimeSig:vector  ETV
vector 260155  Network.dyn_peer[77]  lookupHopsSig:vector  ETV
vector 260154  Network.dyn_peer[77]  lookupTimeSig:vector  ETV
vector 260159  Network.dyn_peer[79]  lookupHopsSig:vector  ETV
vector 260158  Network.dyn_peer[79]  lookupTimeSig:vector  ETV
vector 260161  Network.dyn_peer[80]  lookupHopsSig:vector  ETV
vector 260160  Network.dyn_peer[80]  lookupTimeSig:vector  ETV
vector 260163  Network.dyn_peer[81]  lookupHopsSig:vector  ETV
vector 260162  Network.dyn_peer[81]  lookupTimeSig:vector  ETV
vector 260165  Network.dyn_peer[82]  lookupHopsSig:vector  ETV
vector 260164  Network.dyn_peer[82]  lookupTimeSig:vector  ETV
vector 260167  Network.dyn_peer[83]  lookupHopsSig:vector  ETV
vector 260166  Network.dyn_peer[83]  lookupTimeSig:vector  ETV
vector 260171  Network.dyn_peer[85]  lookupHopsSig:vector  ETV
vector 260170  Network.dyn_peer[85]  lookupTimeSig:vector  ETV
vector 260169  Network.dyn_peer[84]  lookupHopsSig:vector  ETV
vector 260168  Network.dyn_peer[84]  lookupTimeSig:vector  ETV
vector 260175  Network.dyn_peer[87]  lookupHopsSig:vector  ETV
vector 260174  Network.dyn_peer[87]  lookupTimeSig:vector  ETV
vector 260173  Network.dyn_peer[86]  lookupHopsSig:vector  ETV
vector 260172  Network.dyn_peer[86]  lookupTimeSig:vector  ETV
vector 260177  Network.dyn_peer[88]  lookupHopsSig:vector  ETV
vector 260176  Network.dyn_peer[88]  lookupTimeSig:vector  ETV
vector 260179  Network.dyn_peer[89]  lookupHopsSig:vector  ETV
vector 260178  Network.dyn_peer[89]  lookupTimeSig:vector  ETV
vector 260183  Network.dyn_peer[91]  lookupHopsSig:vector  ETV
vector 260182  Network.dyn_peer[91]  lookupTimeSig:vector  ETV
vector 260181  Network.dyn_peer[90]  lookupHopsSig:vector  ETV
vector 260180  Network.dyn_peer[90]  lookupTimeSig:vector  ETV
vector 260185  Network.dyn_peer[92]  lookupHopsSig:vector  ETV
vector 260184  Network.dyn_peer[92]  lookupTimeSig:vector  ETV
vector 260187  Network.dyn_peer[93]  lookupHopsSig:vector  ETV
vector 260186  Network.dyn_peer[93]  lookupTimeSig:vector  ETV
vector 260189  Network.dyn_peer[94]  lookupHopsSig:vector  ETV
vector 260188  Network.dyn_peer[94]  lookupTimeSig:vector  ETV
vector 260193  Network.dyn_peer[96]  lookupHopsSig:vector  ETV
vector 260192  Network.dyn_peer[96]  lookupTimeSig:vector  ETV
vector 260191  Network.dyn_peer[95]  lookupHopsSig:vector  ETV
vector 260190  Network.dyn_peer[95]  lookupTimeSig:vector  ETV
vector 260195  Network.dyn_peer[97]  lookupHopsSig:vector  ETV
vector 260194  Network.dyn_peer[97]  lookupTimeSig:vector  ETV
vector 260197  Network.dyn_peer[98]  lookupHopsSig:vector  ETV
vector 260196  Network.dyn_peer[98]  lookupTimeSig:vector  ETV
vector 260199  Network.dyn_peer[99]  lookupHopsSig:vector  ETV
vector 260198  Network.dyn_peer[99]  lookupTimeSig:vector  ETV
vector 260201  Network.dyn_peer[100]  lookupHopsSig:vector  ETV
vector 260200  Network.dyn_peer[100]  lookupTimeSig:vector  ETV
vector 260207  Network.dyn_peer[103]  lookupHopsSig:vector  ETV
vector 260206  Network.dyn_peer[103]  lookupTimeSig:vector  ETV
vector 260203  Network.dyn_peer[101]  lookupHopsSig:vector  ETV
vector 260202  Network.dyn_peer[101]  lookupTimeSig:vector  ETV
vector 260205  Network.dyn_peer[102]  lookupHopsSig:vector  ETV
vector 260204  Network.dyn_peer[102]  lookupTimeSig:vector  ETV
vector 260209  Network.dyn_peer[104]  lookupHopsSig:vector  ETV
vector 260208  Network.dyn_peer[104]  lookupTimeSig:vector  ETV
vector 260211  Network.dyn_peer[105]  lookupHopsSig:vector  ETV
vector 260210  Network.dyn_peer[105]  lookupTimeSig:vector  ETV
vector 260213  Network.dyn_peer[106]  lookupHopsSig:vector  ETV
vector 260212  Network.dyn_peer[106]  lookupTimeSig:vector  ETV
vector 260215  Network.dyn_peer[107]  lookupHopsSig:vector  ETV
vector 260214  Network.dyn_peer[107]  lookupTimeSig:vector  ETV
vector 260219  Network.dyn_peer[109]  lookupHopsSig:vector  ETV
vector 260218  Network.dyn_peer[109]  lookupTimeSig:vector  ETV
vector 260217  Network.dyn_peer[108]  lookupHopsSig:vector  ETV
vector 260216  Network.dyn_peer[108]  lookupTimeSig:vector  ETV
vector 260221  Network.dyn_peer[110]  lookupHopsSig:vector  ETV
vector 260220  Network.dyn_peer[110]  lookupTimeSig:vector  ETV
vector 260223  Network.dyn_peer[111]  lookupHopsSig:vector  ETV
vector 260222  Network.dyn_peer[111]  lookupTimeSig:vector  ETV
vector 260225  Network.dyn_peer[112]  lookupHopsSig:vector  ETV
vector 260224  Network.dyn_peer[112]  lookupTimeSig:vector  ETV
vector 260227  Network.dyn_peer[113]  lookupHopsSig:vector  ETV
vector 260226  Network.dyn_peer[113]  lookupTimeSig:vector  ETV
vector 260229  Network.dyn_peer[114]  lookupHopsSig:vector  ETV
vector 260228  Network.dyn_peer[114]  lookupTimeSig:vector  ETV
vector 260231  Network.dyn_peer[115]  lookupHopsSig:vector  ETV
vector 260230  Network.dyn_peer[115]  lookupTimeSig:vector  ETV
vector 260233  Network.dyn_peer[116]  lookupHopsSig:vector  ETV
vector 260232  Network.dyn_peer[116]  lookupTimeSig:vector  ETV
vector 260235  Network.dyn_peer[117]  lookupHopsSig:vector  ETV
vector 260234  Network.dyn_peer[117]  lookupTimeSig:vector  ETV
vector 260237  Network.dyn_peer[118]  lookupHopsSig:vector  ETV
vector 260236  Network.dyn_peer[118]  lookupTimeSig:vector  ETV
vector 260239  Network.dyn_peer[119]  lookupHopsSig:vector  ETV
vector 260238  Network.dyn_peer[119]  lookupTimeSig:vector  ETV
vector 260241  Network.dyn_peer[120]  lookupHopsSig:vector  ETV
vector 260240  Network.dyn_peer[120]  lookupTimeSig:vector  ETV
vector 260243  Network.dyn_peer[121]  lookupHopsSig:vector  ETV
vector 260242  Network.dyn_peer[121]  lookupTimeSig:vector  ETV
vector 260245  Network.dyn_peer[122]  lookupHopsSig:vector  ETV
vector 260244  Network.dyn_peer[122]  lookupTimeSig:vector  ETV
vector 260247  Network.dyn_peer[123]  lookupHopsSig:vector  ETV
vector 260246  Network.dyn_peer[123]  lookupTimeSig:vector  ETV
vector 260249  Network.dyn_peer[124]  lookupHopsSig:vector  ETV
vector 260248  Network.dyn_peer[124]  lookupTimeSig:vector  ETV
vector 260251  Network.dyn_peer[125]  lookupHopsSig:vector  ETV
vector 260250  Network.dyn_peer[125]  lookupTimeSig:vector  ETV
vector 260255  Network.dyn_peer[127]  lookupHopsSig:vector  ETV
vector 260254  Network.dyn_peer[127]  lookupTimeSig:vector  ETV
vector 260253  Network.dyn_peer[126]  lookupHopsSig:vector  ETV
vector 260252  Network.dyn_peer[126]  lookupTimeSig:vector  ETV
vector 260257  Network.dyn_peer[128]  lookupHopsSig:vector  ETV
vector 260256  Network.dyn_peer[128]  lookupTimeSig:vector  ETV
vector 260259  Network.dyn_peer[129]  lookupHopsSig:vector  ETV
vector 260258  Network.dyn_peer[129]  lookupTimeSig:vector  ETV
vector 260263  Network.dyn_peer[131]  lookupHopsSig:vector  ETV
vector 260262  Network.dyn_peer[131]  lookupTimeSig:vector  ETV
vector 260265  Network.dyn_peer[132]  lookupHopsSig:vector  ETV
vector 260264  Network.dyn_peer[132]  lookupTimeSig:vector  ETV
vector 260261  Network.dyn_peer[130]  lookupHopsSig:vector  ETV
vector 260260  Network.dyn_peer[130]  lookupTimeSig:vector  ETV
vector 260267  Network.dyn_peer[133]  lookupHopsSig:vector  ETV
vector 260266  Network.dyn_peer[133]  lookupTimeSig:vector  ETV
vector 260269  Network.dyn_peer[134]  lookupHopsSig:vector  ETV
vector 260268  Network.dyn_peer[134]  lookupTimeSig:vector  ETV
vector 260273  Network.dyn_peer[136]  lookupHopsSig:vector  ETV
vector 260272  Network.dyn_peer[136]  lookupTimeSig:vector  ETV
vector 260271  Network.dyn_peer[135]  lookupHopsSig:vector  ETV
vector 260270  Network.dyn_peer[135]  lookupTimeSig:vector  ETV
vector 260275  Network.dyn_peer[137]  lookupHopsSig:vector  ETV
vector 260274  Network.dyn_peer[137]  lookupTimeSig:vector  ETV
vector 260277  Network.dyn_peer[138]  lookupHopsSig:vector  ETV
vector 260276  Network.dyn_peer[138]  lookupTimeSig:vector  ETV
vector 260281  Network.dyn_peer[140]  lookupHopsSig:vector  ETV
vector 260280  Network.dyn_peer[140]  lookupTimeSig:vector  ETV
vector 260279  Network.dyn_peer[139]  lookupHopsSig:vector  ETV
vector 260278  Network.dyn_peer[139]  lookupTimeSig:vector  ETV
vector 260283  Network.dyn_peer[141]  lookupHopsSig:vector  ETV
vector 260282  Network.dyn_peer[141]  lookupTimeSig:vector  ETV
vector 260285  Network.dyn_peer[142]  lookupHopsSig:vector  ETV
vector 260284  Network.dyn_peer[142]  lookupTimeSig:vector  ETV
vector 260287  Network.dyn_peer[143]  lookupHopsSig:vector  ETV
vector 260286  Network.dyn_peer[143]  lookupTimeSig:vector  ETV
vector 260289  Network.dyn_peer[144]  lookupHopsSig:vector  ETV
vector 260288  Network.dyn_peer[144]  lookupTimeSig:vector  ETV
vector 260291  Network.dyn_peer[145]  lookupHopsSig:vector  ETV
vector 260290  Network.dyn_peer[145]  lookupTimeSig:vector  ETV
vector 260293  Network.dyn_peer[146]  lookupHopsSig:vector  ETV
vector 260292  Network.dyn_peer[146]  lookupTimeSig:vector  ETV
vector 260295  Network.dyn_peer[147]  lookupHopsSig:vector  ETV
vector 260294  Network.dyn_peer[147]  lookupTimeSig:vector  ETV
vector 260297  Network.dyn_peer[148]  lookupHopsSig:vector  ETV
vector 260296  Network.dyn_peer[148]  lookupTimeSig:vector  ETV
vector 260301  Network.dyn_peer[150]  lookupHopsSig:vector  ETV
vector 260300  Network.dyn_peer[150]  lookupTimeSig:vector  ETV
vector 260299  Network.dyn_peer[149]  lookupHopsSig:vector  ETV
vector 260298  Network.dyn_peer[149]  lookupTimeSig:vector  ETV
vector 260303  Network.dyn_peer[151]  lookupHopsSig:vector  ETV
vector 260302  Network.dyn_peer[151]  lookupTimeSig:vector  ETV
vector 260307  Network.dyn_peer[153]  lookupHopsSig:vector  ETV
vector 260306  Network.dyn_peer[153]  lookupTimeSig:vector  ETV
vector 260305  Network.dyn_peer[152]  lookupHopsSig:vector  ETV
vector 260304  Network.dyn_peer[152]  lookupTimeSig:vector  ETV
vector 260309  Network.dyn_peer[154]  lookupHopsSig:vector  ETV
vector 260308  Network.dyn_peer[154]  lookupTimeSig:vector  ETV
vector 260311  Network.dyn_peer[155]  lookupHopsSig:vector  ETV
vector 260310  Network.dyn_peer[155]  lookupTimeSig:vector  ETV
vector 260313  Network.dyn_peer[156]  lookupHopsSig:vector  ETV
vector 260312  Network.dyn_peer[156]  lookupTimeSig:vector  ETV
vector 260315  Network.dyn_peer[157]  lookupHopsSig:vector  ETV
vector 260314  Network.dyn_peer[157]  lookupTimeSig:vector  ETV
vector 260317  Network.dyn_peer[158]  lookupHopsSig:vector  ETV
vector 260316  Network.dyn_peer[158]  lookupTimeSig:vector  ETV
vector 260319  Network.dyn_peer[159]  lookupHopsSig:vector  ETV
vector 260318  Network.dyn_peer[159]  lookupTimeSig:vector  ETV
vector 260321  Network.dyn_peer[160]  lookupHopsSig:vector  ETV
vector 260320  Network.dyn_peer[160]  lookupTimeSig:vector  ETV
vector 260323  Network.dyn_peer[161]  lookupHopsSig:vector  ETV
vector 260322  Network.dyn_peer[161]  lookupTimeSig:vector  ETV
vector 260325  Network.dyn_peer[162]  lookupHopsSig:vector  ETV
vector 260324  Network.dyn_peer[162]  lookupTimeSig:vector  ETV
vector 260327  Network.dyn_peer[163]  lookupHopsSig:vector  ETV
vector 260326  Network.dyn_peer[163]  lookupTimeSig:vector  ETV
vector 260329  Network.dyn_peer[164]  lookupHopsSig:vector  ETV
vector 260328  Network.dyn_peer[164]  lookupTimeSig:vector  ETV
vector 260331  Network.dyn_peer[165]  lookupHopsSig:vector  ETV
vector 260330  Network.dyn_peer[165]  lookupTimeSig:vector  ETV
vector 260333  Network.dyn_peer[166]  lookupHopsSig:vector  ETV
vector 260332  Network.dyn_peer[166]  lookupTimeSig:vector  ETV
vector 260335  Network.dyn_peer[167]  lookupHopsSig:vector  ETV
vector 260334  Network.dyn_peer[167]  lookupTimeSig:vector  ETV
vector 260337  Network.dyn_peer[168]  lookupHopsSig:vector  ETV
vector 260336  Network.dyn_peer[168]  lookupTimeSig:vector  ETV
vector 260339  Network.dyn_peer[169]  lookupHopsSig:vector  ETV
vector 260338  Network.dyn_peer[169]  lookupTimeSig:vector  ETV
vector 260341  Network.dyn_peer[170]  lookupHopsSig:vector  ETV
vector 260340  Network.dyn_peer[170]  lookupTimeSig:vector  ETV
vector 260343  Network.dyn_peer[171]  lookupHopsSig:vector  ETV
vector 260342  Network.dyn_peer[171]  lookupTimeSig:vector  ETV
vector 260345  Network.dyn_peer[172]  lookupHopsSig:vector  ETV
vector 260344  Network.dyn_peer[172]  lookupTimeSig:vector  ETV
vector 260349  Network.dyn_peer[174]  lookupHopsSig:vector  ETV
vector 260348  Network.dyn_peer[174]  lookupTimeSig:vector  ETV
vector 260351  Network.dyn_peer[175]  lookupHopsSig:vector  ETV
vector 260350  Network.dyn_peer[175]  lookupTimeSig:vector  ETV
vector 260347  Network.dyn_peer[173]  lookupHopsSig:vector  ETV
vector 260346  Network.dyn_peer[173]  lookupTimeSig:vector  ETV
vector 260353  Network.dyn_peer[176]  lookupHopsSig:vector  ETV
vector 260352  Network.dyn_peer[176]  lookupTimeSig:vector  ETV
vector 260355  Network.dyn_peer[177]  lookupHopsSig:vector  ETV
vector 260354  Network.dyn_peer[177]  lookupTimeSig:vector  ETV
vector 260357  Network.dyn_peer[178]  lookupHopsSig:vector  ETV
vector 260356  Network.dyn_peer[178]  lookupTimeSig:vector  ETV
vector 260361  Network.dyn_peer[180]  lookupHopsSig:vector  ETV
vector 260360  Network.dyn_peer[180]  lookupTimeSig:vector  ETV
vector 260363  Network.dyn_peer[181]  lookupHopsSig:vector  ETV
vector 260362  Network.dyn_peer[181]  lookupTimeSig:vector  ETV
vector 260359  Network.dyn_peer[179]  lookupHopsSig:vector  ETV
vector 260358  Network.dyn_peer[179]  lookupTimeSig:vector  ETV
vector 260365  Network.dyn_peer[182]  lookupHopsSig:vector  ETV
vector 260364  Network.dyn_peer[182]  lookupTimeSig:vector  ETV
vector 260367  Network.dyn_peer[183]  lookupHopsSig:vector  ETV
vector 260366  Network.dyn_peer[183]  lookupTimeSig:vector  ETV
vector 260369  Network.dyn_peer[184]  lookupHopsSig:vector  ETV
vector 260368  Network.dyn_peer[184]  lookupTimeSig:vector  ETV
vector 260371  Network.dyn_peer[185]  lookupHopsSig:vector  ETV
vector 260370  Network.dyn_peer[185]  lookupTimeSig:vector  ETV
vector 260375  Network.dyn_peer[187]  lookupHopsSig:vector  ETV
vector 260374  Network.dyn_peer[187]  lookupTimeSig:vector  ETV
vector 260377  Network.dyn_peer[188]  lookupHopsSig:vector  ETV
vector 260376  Network.dyn_peer[188]  lookupTimeSig:vector  ETV
vector 260373  Network.dyn_peer[186]  lookupHopsSig:vector  ETV
vector 260372  Network.dyn_peer[186]  lookupTimeSig:vector  ETV
vector 260379  Network.dyn_peer[189]  lookupHopsSig:vector  ETV
vector 260378  Network.dyn_peer[189]  lookupTimeSig:vector  ETV
vector 260381  Network.dyn_peer[190]  lookupHopsSig:vector  ETV
vector 260380  Network.dyn_peer[190]  lookupTimeSig:vector  ETV
vector 260383  Network.dyn_peer[191]  lookupHopsSig:vector  ETV
vector 260382  Network.dyn_peer[191]  lookupTimeSig:vector  ETV
vector 260385  Network.dyn_peer[192]  lookupHopsSig:vector  ETV
vector 260384  Network.dyn_peer[192]  lookupTimeSig:vector  ETV
vector 260387  Network.dyn_peer[193]  lookupHopsSig:vector  ETV
vector 260386  Network.dyn_peer[193]  lookupTimeSig:vector  ETV
vector 260391  Network.dyn_peer[195]  lookupHopsSig:vector  ETV
vector 260390  Network.dyn_peer[195]  lookupTimeSig:vector  ETV
vector 260389  Network.dyn_peer[194]  lookupHopsSig:vector  ETV
vector 260388  Network.dyn_peer[194]  lookupTimeSig:vector  ETV
vector 260393  Network.dyn_peer[196]  lookupHopsSig:vector  ETV
vector 260392  Network.dyn_peer[196]  lookupTimeSig:vector  ETV
vector 260397  Network.dyn_peer[198]  lookupHopsSig:vector  ETV
vector 260396  Network.dyn_peer[198]  lookupTimeSig:vector  ETV
vector 260395  Network.dyn_peer[197]  lookupHopsSig:vector  ETV
vector 260394  Network.dyn_peer[197]  lookupTimeSig:vector  ETV
vector 260401  Network.dyn_peer[200]  lookupHopsSig:vector  ETV
vector 260400  Network.dyn_peer[200]  lookupTimeSig:vector  ETV
vector 260399  Network.dyn_peer[199]  lookupHopsSig:vector  ETV
vector 260398  Network.dyn_peer[199]  lookupTimeSig:vector  ETV
vector 260403  Network.dyn_peer[201]  lookupHopsSig:vector  ETV
vector 260402  Network.dyn_peer[201]  lookupTimeSig:vector  ETV
vector 260407  Network.dyn_peer[203]  lookupHopsSig:vector  ETV
vector 260406  Network.dyn_peer[203]  lookupTimeSig:vector  ETV
vector 260405  Network.dyn_peer[202]  lookupHopsSig:vector  ETV
vector 260404  Network.dyn_peer[202]  lookupTimeSig:vector  ETV
vector 260409  Network.dyn_peer[204]  lookupHopsSig:vector  ETV
vector 260408  Network.dyn_peer[204]  lookupTimeSig:vector  ETV
vector 260411  Network.dyn_peer[205]  lookupHopsSig:vector  ETV
vector 260410  Network.dyn_peer[205]  lookupTimeSig:vector  ETV
vector 260415  Network.dyn_peer[207]  lookupHopsSig:vector  ETV
vector 260414  Network.dyn_peer[207]  lookupTimeSig:vector  ETV
vector 260413  Network.dyn_peer[206]  lookupHopsSig:vector  ETV
vector 260412  Network.dyn_peer[206]  lookupTimeSig:vector  ETV
vector 260417  Network.dyn_peer[208]  lookupHopsSig:vector  ETV
vector 260416  Network.dyn_peer[208]  lookupTimeSig:vector  ETV
vector 260419  Network.dyn_peer[209]  lookupHopsSig:vector  ETV
vector 260418  Network.dyn_peer[209]  lookupTimeSig:vector  ETV
vector 260421  Network.dyn_peer[210]  lookupHopsSig:vector  ETV
vector 260420  Network.dyn_peer[210]  lookupTimeSig:vector  ETV
vector 260423  Network.dyn_peer[211]  lookupHopsSig:vector  ETV
vector 260422  Network.dyn_peer[211]  lookupTimeSig:vector  ETV
vector 260425  Network.dyn_peer[212]  lookupHopsSig:vector  ETV
vector 260424  Network.dyn_peer[212]  lookupTimeSig:vector  ETV
vector 260427  Network.dyn_peer[213]  lookupHopsSig:vector  ETV
vector 260426  Network.dyn_peer[213]  lookupTimeSig:vector  ETV
vector 260429  Network.dyn_peer[214]  lookupHopsSig:vector  ETV
vector 260428  Network.dyn_peer[214]  lookupTimeSig:vector  ETV
vector 260431  Network.dyn_peer[215]  lookupHopsSig:vector  ETV
vector 260430  Network.dyn_peer[215]  lookupTimeSig:vector  ETV
vector 260433  Network.dyn_peer[216]  lookupHopsSig:vector  ETV
vector 260432  Network.dyn_peer[216]  lookupTimeSig:vector  ETV
vector 260437  Network.dyn_peer[218]  lookupHopsSig:vector  ETV
vector 260436  Network.dyn_peer[218]  lookupTimeSig:vector  ETV
vector 260435  Network.dyn_peer[217]  lookupHopsSig:vector  ETV
vector 260434  Network.dyn_peer[217]  lookupTimeSig:vector  ETV
vector 260439  Network.dyn_peer[219]  lookupHopsSig:vector  ETV
vector 260438  Network.dyn_peer[219]  lookupTimeSig:vector  ETV
vector 260441  Network.dyn_peer[220]  lookupHopsSig:vector  ETV
vector 260440  Network.dyn_peer[220]  lookupTimeSig:vector  ETV
vector 260445  Network.dyn_peer[222]  lookupHopsSig:vector  ETV
vector 260444  Network.dyn_peer[222]  lookupTimeSig:vector  ETV
vector 260443  Network.dyn_peer[221]  lookupHopsSig:vector  ETV
vector 260442  Network.dyn_peer[221]  lookupTimeSig:vector  ETV
vector 260449  Network.dyn_peer[224]  lookupHopsSig:vector  ETV
vector 260448  Network.dyn_peer[224]  lookupTimeSig:vector  ETV
vector 260451  Network.dyn_peer[225]  lookupHopsSig:vector  ETV
vector 260450  Network.dyn_peer[225]  lookupTimeSig:vector  ETV
vector 260447  Network.dyn_peer[223]  lookupHopsSig:vector  ETV
vector 260446  Network.dyn_peer[223]  lookupTimeSig:vector  ETV
vector 260453  Network.dyn_peer[226]  lookupHopsSig:vector  ETV
vector 260452  Network.dyn_peer[226]  lookupTimeSig:vector  ETV
vector 260455  Network.dyn_peer[227]  lookupHopsSig:vector  ETV
vector 260454  Network.dyn_peer[227]  lookupTimeSig:vector  ETV
vector 260457  Network.dyn_peer[228]  lookupHopsSig:vector  ETV
vector 260456  Network.dyn_peer[228]  lookupTimeSig:vector  ETV
vector 260459  Network.dyn_peer[229]  lookupHopsSig:vector  ETV
vector 260458  Network.dyn_peer[229]  lookupTimeSig:vector  ETV
vector 260463  Network.dyn_peer[231]  lookupHopsSig:vector  ETV
vector 260462  Network.dyn_peer[231]  lookupTimeSig:vector  ETV
vector 260461  Network.dyn_peer[230]  lookupHopsSig:vector  ETV
vector 260460  Network.dyn_peer[230]  lookupTimeSig:vector  ETV
vector 260465  Network.dyn_peer[232]  lookupHopsSig:vector  ETV