file 801733 1369168770                                          
version 2
run Stability-182-20130521-22:39:26-23591
attr configname Stability
attr datetime 20130521-22:39:26
attr experiment Stability
attr inifile omnetpp.ini
attr iterationvars $0=0.125
attr iterationvars2 "$0=0.125, $repetition=2"
attr measurement $0=0.125
attr network Network
attr processid 23591
attr repetition 2
attr replication #2
attr resultdir results
attr runnumber 182
attr seedset 182

vector 364005  Network.dyn_peer[2]  lookupHopsSig:vector  ETV
vector 364004  Network.dyn_peer[2]  lookupTimeSig:vector  ETV
vector 364007  Network.dyn_peer[3]  lookupHopsSig:vector  ETV
vector 364006  Network.dyn_peer[3]  lookupTimeSig:vector  ETV
vector 364001  Network.dyn_peer[0]  lookupHopsSig:vector  ETV
vector 364000  Network.dyn_peer[0]  lookupTimeSig:vector  ETV
vector 364003  Network.dyn_peer[1]  lookupHopsSig:vector  ETV
vector 364002  Network.dyn_peer[1]  lookupTimeSig:vector  ETV
vector 364009  Network.dyn_peer[4]  lookupHopsSig:vector  ETV
vector 364008  Network.dyn_peer[4]  lookupTimeSig:vector  ETV
vector 364011  Network.dyn_peer[5]  lookupHopsSig:vector  ETV
vector 364010  Network.dyn_peer[5]  lookupTimeSig:vector  ETV
vector 364013  Network.dyn_peer[6]  lookupHopsSig:vector  ETV
vector 364012  Network.dyn_peer[6]  lookupTimeSig:vector  ETV
vector 364017  Network.dyn_peer[8]  lookupHopsSig:vector  ETV
vector 364016  Network.dyn_peer[8]  lookupTimeSig:vector  ETV
vector 364015  Network.dyn_peer[7]  lookupHopsSig:vector  ETV
vector 364014  Network.dyn_peer[7]  lookupTimeSig:vector  ETV
vector 364019  Network.dyn_peer[9]  lookupHopsSig:vector  ETV
vector 364018  Network.dyn_peer[9]  lookupTimeSig:vector  ETV
vector 364021  Network.dyn_peer[10]  lookupHopsSig:vector  ETV
vector 364020  Network.dyn_peer[10]  lookupTimeSig:vector  ETV
vector 364029  Network.dyn_peer[14]  lookupHopsSig:vector  ETV
vector 364028  Network.dyn_peer[14]  lookupTimeSig:vector  ETV
vector 364023  Network.dyn_peer[11]  lookupHopsSig:vector  ETV
vector 364022  Network.dyn_peer[11]  lookupTimeSig:vector  ETV
vector 364025  Network.dyn_peer[12]  lookupHopsSig:vector  ETV
vector 364024  Network.dyn_peer[12]  lookupTimeSig:vector  ETV
vector 364027  Network.dyn_peer[13]  lookupHopsSig:vector  ETV
vector 364026  Network.dyn_peer[13]  lookupTimeSig:vector  ETV
vector 364031  Network.dyn_peer[15]  lookupHopsSig:vector  ETV
vector 364030  Network.dyn_peer[15]  lookupTimeSig:vector  ETV
vector 364035  Network.dyn_peer[17]  lookupHopsSig:vector  ETV
vector 364034  Network.dyn_peer[17]  lookupTimeSig:vector  ETV
vector 364033  Network.dyn_peer[16]  lookupHopsSig:vector  ETV
vector 364032  Network.dyn_peer[16]  lookupTimeSig:vector  ETV
vector 364037  Network.dyn_peer[18]  lookupHopsSig:vector  ETV
vector 364036  Network.dyn_peer[18]  lookupTimeSig:vector  ETV
vector 364039  Network.dyn_peer[19]  lookupHopsSig:vector  ETV
vector 364038  Network.dyn_peer[19]  lookupTimeSig:vector  ETV
vector 364041  Network.dyn_peer[20]  lookupHopsSig:vector  ETV
vector 364040  Network.dyn_peer[20]  lookupTimeSig:vector  ETV
vector 364045  Network.dyn_peer[22]  lookupHopsSig:vector  ETV
vector 364044  Network.dyn_peer[22]  lookupTimeSig:vector  ETV
vector 364043  Network.dyn_peer[21]  lookupHopsSig:vector  ETV
vector 364042  Network.dyn_peer[21]  lookupTimeSig:vector  ETV
vector 364053  Network.dyn_peer[26]  lookupHopsSig:vector  ETV
vector 364052  Network.dyn_peer[26]  lookupTimeSig:vector  ETV
vector 364047  Network.dyn_peer[23]  lookupHopsSig:vector  ETV
vector 364046  Network.dyn_peer[23]  lookupTimeSig:vector  ETV
vector 364051  Network.dyn_peer[25]  lookupHopsSig:vector  ETV
vector 364050  Network.dyn_peer[25]  lookupTimeSig:vector  ETV
vector 364049  Network.dyn_peer[24]  lookupHopsSig:vector  ETV
vector 364048  Network.dyn_peer[24]  lookupTimeSig:vector  ETV
vector 364055  Network.dyn_peer[27]  lookupHopsSig:vector  ETV
vector 364054  Network.dyn_peer[27]  lookupTimeSig:vector  ETV
vector 364057  Network.dyn_peer[28]  lookupHopsSig:vector  ETV
vector 364056  Network.dyn_peer[28]  lookupTimeSig:vector  ETV
vector 364059  Network.dyn_peer[29]  lookupHopsSig:vector  ETV
vector 364058  Network.dyn_peer[29]  lookupTimeSig:vector  ETV
vector 364063  Network.dyn_peer[31]  lookupHopsSig:vector  ETV
vector 364062  Network.dyn_peer[31]  lookupTimeSig:vector  ETV
vector 364069  Network.dyn_peer[34]  lookupHopsSig:vector  ETV
vector 364068  Network.dyn_peer[34]  lookupTimeSig:vector  ETV
vector 364067  Network.dyn_peer[33]  lookupHopsSig:vector  ETV
vector 364066  Network.dyn_peer[33]  lookupTimeSig:vector  ETV
vector 364061  Network.dyn_peer[30]  lookupHopsSig:vector  ETV
vector 364060  Network.dyn_peer[30]  lookupTimeSig:vector  ETV
vector 364071  Network.dyn_peer[35]  lookupHopsSig:vector  ETV
vector 364070  Network.dyn_peer[35]  lookupTimeSig:vector  ETV
vector 364065  Network.dyn_peer[32]  lookupHopsSig:vector  ETV
vector 364064  Network.dyn_peer[32]  lookupTimeSig:vector  ETV
vector 364073  Network.dyn_peer[36]  lookupHopsSig:vector  ETV
vector 364072  Network.dyn_peer[36]  lookupTimeSig:vector  ETV
vector 364077  Network.dyn_peer[38]  lookupHopsSig:vector  ETV
vector 364076  Network.dyn_peer[38]  lookupTimeSig:vector  ETV
vector 364075  Network.dyn_peer[37]  lookupHopsSig:vector  ETV
vector 364074  Network.dyn_peer[37]  lookupTimeSig:vector  ETV
vector 364081  Network.dyn_peer[40]  lookupHopsSig:vector  ETV
vector 364080  Network.dyn_peer[40]  lookupTimeSig:vector  ETV
vector 364079  Network.dyn_peer[39]  lookupHopsSig:vector  ETV
vector 364078  Network.dyn_peer[39]  lookupTimeSig:vector  ETV
vector 364085  Network.dyn_peer[42]  lookupHopsSig:vector  ETV
vector 364084  Network.dyn_peer[42]  lookupTimeSig:vector  ETV
vector 364087  Network.dyn_peer[43]  lookupHopsSig:vector  ETV
vector 364086  Network.dyn_peer[43]  lookupTimeSig:vector  ETV
vector 364083  Network.dyn_peer[41]  lookupHopsSig:vector  ETV
vector 364082  Network.dyn_peer[41]  lookupTimeSig:vector  ETV
vector 364091  Network.dyn_peer[45]  lookupHopsSig:vector  ETV
vector 364090  Network.dyn_peer[45]  lookupTimeSig:vector  ETV
vector 364089  Network.dyn_peer[44]  lookupHopsSig:vector  ETV
vector 364088  Network.dyn_peer[44]  lookupTimeSig:vector  ETV
vector 364093  Network.dyn_peer[46]  lookupHopsSig:vector  ETV
vector 364092  Network.dyn_peer[46]  lookupTimeSig:vector  ETV
vector 364095  Network.dyn_peer[47]  lookupHopsSig:vector  ETV
vector 364094  Network.dyn_peer[47]  lookupTimeSig:vector  ETV
vector 364097  Network.dyn_peer[48]  lookupHopsSig:vector  ETV
vector 364096  Network.dyn_peer[48]  lookupTimeSig:vector  ETV
vector 364101  Network.dyn_peer[50]  lookupHopsSig:vector  ETV
vector 364100  Network.dyn_peer[50]  lookupTimeSig:vector  ETV
vector 364105  Network.dyn_peer[52]  lookupHopsSig:vector  ETV
vector 364104  Network.dyn_peer[52]  lookupTimeSig:vector  ETV
vector 364099  Network.dyn_peer[49]  lookupHopsSig:vector  ETV
vector 364098  Network.dyn_peer[49]  lookupTimeSig:vector  ETV
vector 364103  Network.dyn_peer[51]  lookupHopsSig:vector  ETV
vector 364102  Network.dyn_peer[51]  lookupTimeSig:vector  ETV
vector 364111  Network.dyn_peer[55]  lookupHopsSig:vector  ETV
vector 364110  Network.dyn_peer[55]  lookupTimeSig:vector  ETV
vector 364107  Network.dyn_peer[53]  lookupHopsSig:vector  ETV
vector 364106  Network.dyn_peer[53]  lookupTimeSig:vector  ETV
vector 364117  Network.dyn_peer[58]  lookupHopsSig:vector  ETV
vector 364116  Network.dyn_peer[58]  lookupTimeSig:vector  ETV
vector 364115  Network.dyn_peer[57]  lookupHopsSig:vector  ETV
vector 364114  Network.dyn_peer[57]  lookupTimeSig:vector  ETV
vector 364109  Network.dyn_peer[54]  lookupHopsSig:vector  ETV
vector 364108  Network.dyn_peer[54]  lookupTimeSig:vector  ETV
vector 364121  Network.dyn_peer[60]  lookupHopsSig:vector  ETV
vector 364120  Network.dyn_peer[60]  lookupTimeSig:vector  ETV
vector 364119  Network.dyn_peer[59]  lookupHopsSig:vector  ETV
vector 364118  Network.dyn_peer[59]  lookupTimeSig:vector  ETV
vector 364125  Network.dyn_peer[62]  lookupHopsSig:vector  ETV
vector 364124  Network.dyn_peer[62]  lookupTimeSig:vector  ETV
vector 364113  Network.dyn_peer[56]  lookupHopsSig:vector  ETV
vector 364112  Network.dyn_peer[56]  lookupTimeSig:vector  ETV
vector 364131  Network.dyn_peer[65]  lookupHopsSig:vector  ETV
vector 364130  Network.dyn_peer[65]  lookupTimeSig:vector  ETV
vector 364123  Network.dyn_peer[61]  lookupHopsSig:vector  ETV
vector 364122  Network.dyn_peer[61]  lookupTimeSig:vector  ETV
vector 364127  Network.dyn_peer[63]  lookupHopsSig:vector  ETV
vector 364126  Network.dyn_peer[63]  lookupTimeSig:vector  ETV
vector 364129  Network.dyn_peer[64]  lookupHopsSig:vector  ETV
vector 364128  Network.dyn_peer[64]  lookupTimeSig:vector  ETV
vector 364139  Network.dyn_peer[69]  lookupHopsSig:vector  ETV
vector 364138  Network.dyn_peer[69]  lookupTimeSig:vector  ETV
vector 364133  Network.dyn_peer[66]  lookupHopsSig:vector  ETV
vector 364132  Network.dyn_peer[66]  lookupTimeSig:vector  ETV
vector 364141  Network.dyn_peer[70]  lookupHopsSig:vector  ETV
vector 364140  Network.dyn_peer[70]  lookupTimeSig:vector  ETV
vector 364135  Network.dyn_peer[67]  lookupHopsSig:vector  ETV
vector 364134  Network.dyn_peer[67]  lookupTimeSig:vector  ETV
vector 364143  Network.dyn_peer[71]  lookupHopsSig:vector  ETV
vector 364142  Network.dyn_peer[71]  lookupTimeSig:vector  ETV
vector 364137  Network.dyn_peer[68]  lookupHopsSig:vector  ETV
vector 364136  Network.dyn_peer[68]  lookupTimeSig:vector  ETV
vector 364151  Network.dyn_peer[75]  lookupHopsSig:vector  ETV
vector 364150  Network.dyn_peer[75]  lookupTimeSig:vector  ETV
vector 364155  Network.dyn_peer[77]  lookupHopsSig:vector  ETV
vector 364154  Network.dyn_peer[77]  lookupTimeSig:vector  ETV
vector 364147  Network.dyn_peer[73]  lookupHopsSig:vector  ETV
vector 364146  Network.dyn_peer[73]  lookupTimeSig:vector  ETV
vector 364149  Network.dyn_peer[74]  lookupHopsSig:vector  ETV
vector 364148  Network.dyn_peer[74]  lookupTimeSig:vector  ETV
vector 364157  Network.dyn_peer[78]  lookupHopsSig:vector  ETV
vector 364156  Network.dyn_peer[78]  lookupTimeSig:vector  ETV
vector 364165  Network.dyn_peer[82]  lookupHopsSig:vector  ETV
vector 364164  Network.dyn_peer[82]  lookupTimeSig:vector  ETV
vector 364153  Network.dyn_peer[76]  lookupHopsSig:vector  ETV
vector 364152  Network.dyn_peer[76]  lookupTimeSig:vector  ETV
vector 364161  Network.dyn_peer[80]  lookupHopsSig:vector  ETV
vector 364160  Network.dyn_peer[80]  lookupTimeSig:vector  ETV
vector 364159  Network.dyn_peer[79]  lookupHopsSig:vector  ETV
vector 364158  Network.dyn_peer[79]  lookupTimeSig:vector  ETV
vector 364145  Network.dyn_peer[72]  lookupHopsSig:vector  ETV
vector 364144  Network.dyn_peer[72]  lookupTimeSig:vector  ETV
vector 364169  Network.dyn_peer[84]  lookupHopsSig:vector  ETV
vector 364168  Network.dyn_peer[84]  lookupTimeSig:vector  ETV
vector 364167  Network.dyn_peer[83]  lookupHopsSig:vector  ETV
vector 364166  Network.dyn_peer[83]  lookupTimeSig:vector  ETV
vector 364163  Network.dyn_peer[81]  lookupHopsSig:vector  ETV
vector 364162  Network.dyn_peer[81]  lookupTimeSig:vector  ETV
vector 364171  Network.dyn_peer[85]  lookupHopsSig:vector  ETV
vector 364170  Network.dyn_peer[85]  lookupTimeSig:vector  ETV
vector 364173  Network.dyn_peer[86]  lookupHopsSig:vector  ETV
vector 364172  Network.dyn_peer[86]  lookupTimeSig:vector  ETV
vector 364181  Network.dyn_peer[90]  lookupHopsSig:vector  ETV
vector 364180  Network.dyn_peer[90]  lookupTimeSig:vector  ETV
vector 364177  Network.dyn_peer[88]  lookupHopsSig:vector  ETV
vector 364176  Network.dyn_peer[88]  lookupTimeSig:vector  ETV
vector 364179  Network.dyn_peer[89]  lookupHopsSig:vector  ETV
vector 364178  Network.dyn_peer[89]  lookupTimeSig:vector  ETV
vector 364175  Network.dyn_peer[87]  lookupHopsSig:vector  ETV
vector 364174  Network.dyn_peer[87]  lookupTimeSig:vector  ETV
vector 364183  Network.dyn_peer[91]  lookupHopsSig:vector  ETV
vector 364182  Network.dyn_peer[91]  lookupTimeSig:vector  ETV
vector 364191  Network.dyn_peer[95]  lookupHopsSig:vector  ETV
vector 364190  Network.dyn_peer[95]  lookupTimeSig:vector  ETV
vector 364185  Network.dyn_peer[92]  lookupHopsSig:vector  ETV
vector 364184  Network.dyn_peer[92]  lookupTimeSig:vector  ETV
vector 364189  Network.dyn_peer[94]  lookupHopsSig:vector  ETV
vector 364188  Network.dyn_peer[94]  lookupTimeSig:vector  ETV
vector 364187  Network.dyn_peer[93]  lookupHopsSig:vector  ETV
vector 364186  Network.dyn_peer[93]  lookupTimeSig:vector  ETV
vector 364197  Network.dyn_peer[98]  lookupHopsSig:vector  ETV
vector 364196  Network.dyn_peer[98]  lookupTimeSig:vector  ETV
vector 364193  Network.dyn_peer[96]  lookupHopsSig:vector  ETV
vector 364192  Network.dyn_peer[96]  lookupTimeSig:vector  ETV
vector 364201  Network.dyn_peer[100]  lookupHopsSig:vector  ETV
vector 364200  Network.dyn_peer[100]  lookupTimeSig:vector  ETV
vector 364195  Network.dyn_peer[97]  lookupHopsSig:vector  ETV
vector 364194  Network.dyn_peer[97]  lookupTimeSig:vector  ETV
vector 364205  Network.dyn_peer[102]  lookupHopsSig:vector  ETV
vector 364204  Network.dyn_peer[102]  lookupTimeSig:vector  ETV
vector 364199  Network.dyn_peer[99]  lookupHopsSig:vector  ETV
vector 364198  Network.dyn_peer[99]  lookupTimeSig:vector  ETV
vector 364203  Network.dyn_peer[101]  lookupHopsSig:vector  ETV
vector 364202  Network.dyn_peer[101]  lookupTimeSig:vector  ETV
vector 364209  Network.dyn_peer[104]  lookupHopsSig:vector  ETV
vector 364208  Network.dyn_peer[104]  lookupTimeSig:vector  ETV
vector 364211  Network.dyn_peer[105]  lookupHopsSig:vector  ETV
vector 364210  Network.dyn_peer[105]  lookupTimeSig:vector  ETV
vector 364213  Network.dyn_peer[106]  lookupHopsSig:vector  ETV
vector 364212  Network.dyn_peer[106]  lookupTimeSig:vector  ETV
vector 364221  Network.dyn_peer[110]  lookupHopsSig:vector  ETV
vector 364220  Network.dyn_peer[110]  lookupTimeSig:vector  ETV
vector 364207  Network.dyn_peer[103]  lookupHopsSig:vector  ETV
vector 364206  Network.dyn_peer[103]  lookupTimeSig:vector  ETV
vector 364215  Network.dyn_peer[107]  lookupHopsSig:vector  ETV
vector 364214  Network.dyn_peer[107]  lookupTimeSig:vector  ETV
vector 364219  Network.dyn_peer[109]  lookupHopsSig:vector  ETV
vector 364218  Network.dyn_peer[109]  lookupTimeSig:vector  ETV
vector 364217  Network.dyn_peer[108]  lookupHopsSig:vector  ETV
vector 364216  Network.dyn_peer[108]  lookupTimeSig:vector  ETV
vector 364223  Network.dyn_peer[111]  lookupHopsSig:vector  ETV
vector 364222  Network.dyn_peer[111]  lookupTimeSig:vector  ETV
vector 364225  Network.dyn_peer[112]  lookupHopsSig:vector  ETV
vector 364224  Network.dyn_peer[112]  lookupTimeSig:vector  ETV
vector 364227  Network.dyn_peer[113]  lookupHopsSig:vector  ETV
vector 364226  Network.dyn_peer[113]  lookupTimeSig:vector  ETV
vector 364229  Network.dyn_peer[114]  lookupHopsSig:vector  ETV
vector 364228  Network.dyn_peer[114]  lookupTimeSig:vector  ETV
vector 364241  Network.dyn_peer[120]  lookupHopsSig:vector  ETV
vector 364240  Network.dyn_peer[120]  lookupTimeSig:vector  ETV
vector 364231  Network.dyn_peer[115]  lookupHopsSig:vector  ETV
vector 364230  Network.dyn_peer[115]  lookupTimeSig:vector  ETV
vector 364235  Network.dyn_peer[117]  lookupHopsSig:vector  ETV
vector 364234  Network.dyn_peer[117]  lookupTimeSig:vector  ETV
vector 364245  Network.dyn_peer[122]  lookupHopsSig:vector  ETV
vector 364244  Network.dyn_peer[122]  lookupTimeSig:vector  ETV
vector 364239  Network.dyn_peer[119]  lookupHopsSig:vector  ETV
vector 364238  Network.dyn_peer[119]  lookupTimeSig:vector  ETV
vector 364243  Network.dyn_peer[121]  lookupHopsSig:vector  ETV
vector 364242  Network.dyn_peer[121]  lookupTimeSig:vector  ETV
vector 364237  Network.dyn_peer[118]  lookupHopsSig:vector  ETV
vector 364236  Network.dyn_peer[118]  lookupTimeSig:vector  ETV
vector 364247  Network.dyn_peer[123]  lookupHopsSig:vector  ETV
vector 364246  Network.dyn_peer[123]  lookupTimeSig:vector  ETV
vector 364233  Network.dyn_peer[116]  lookupHopsSig:vector  ETV
vector 364232  Network.dyn_peer[116]  lookupTimeSig:vector  ETV
vector 364249  Network.dyn_peer[124]  lookupHopsSig:vector  ETV
vector 364248  Network.dyn_peer[124]  lookupTimeSig:vector  ETV
vector 364251  Network.dyn_peer[125]  lookupHopsSig:vector  ETV
vector 364250  Network.dyn_peer[125]  lookupTimeSig:vector  ETV
vector 364255  Network.dyn_peer[127]  lookupHopsSig:vector  ETV
vector 364254  Network.dyn_peer[127]  lookupTimeSig:vector  ETV
vector 364253  Network.dyn_peer[126]  lookupHopsSig:vector  ETV
vector 364252  Network.dyn_peer[126]  lookupTimeSig:vector  ETV
vector 364257  Network.dyn_peer[128]  lookupHopsSig:vector  ETV
vector 364256  Network.dyn_peer[128]  lookupTimeSig:vector  ETV
vector 364259  Network.dyn_peer[129]  lookupHopsSig:vector  ETV
vector 364258  Network.dyn_peer[129]  lookupTimeSig:vector  ETV
vector 364261  Network.dyn_peer[130]  lookupHopsSig:vector  ETV
vector 364260  Network.dyn_peer[130]  lookupTimeSig:vector  ETV
vector 364263  Network.dyn_peer[131]  lookupHopsSig:vector  ETV
vector 364262  Network.dyn_peer[131]  lookupTimeSig:vector  ETV
vector 364271  Network.dyn_peer[135]  lookupHopsSig:vector  ETV
vector 364270  Network.dyn_peer[135]  lookupTimeSig:vector  ETV
vector 364265  Network.dyn_peer[132]  lookupHopsSig:vector  ETV
vector 364264  Network.dyn_peer[132]  lookupTimeSig:vector  ETV
vector 364267  Network.dyn_peer[133]  lookupHopsSig:vector  ETV
vector 364266  Network.dyn_peer[133]  lookupTimeSig:vector  ETV
vector 364269  Network.dyn_peer[134]  lookupHopsSig:vector  ETV
vector 364268  Network.dyn_peer[134]  lookupTimeSig:vector  ETV
vector 364273  Network.dyn_peer[136]  lookupHopsSig:vector  ETV
vector 364272  Network.dyn_peer[136]  lookupTimeSig:vector  ETV
vector 364279  Network.dyn_peer[139]  lookupHopsSig:vector  ETV
vector 364278  Network.dyn_peer[139]  lookupTimeSig:vector  ETV
vector 364281  Network.dyn_peer[140]  lookupHopsSig:vector  ETV
vector 364280  Network.dyn_peer[140]  lookupTimeSig:vector  ETV
vector 364275  Network.dyn_peer[137]  lookupHopsSig:vector  ETV
vector 364274  Network.dyn_peer[137]  lookupTimeSig:vector  ETV
vector 364277  Network.dyn_peer[138]  lookupHopsSig:vector  ETV
vector 364276  Network.dyn_peer[138]  lookupTimeSig:vector  ETV
vector 364285  Network.dyn_peer[142]  lookupHopsSig:vector  ETV
vector 364284  Network.dyn_peer[142]  lookupTimeSig:vector  ETV
vector 364289  Network.dyn_peer[144]  lookupHopsSig:vector  ETV
vector 364288  Network.dyn_peer[144]  lookupTimeSig:vector  ETV
vector 364287  Network.dyn_peer[143]  lookupHopsSig:vector  ETV
vector 364286  Network.dyn_peer[143]  lookupTimeSig:vector  ETV
vector 364283  Network.dyn_peer[141]  lookupHopsSig:vector  ETV
vector 364282  Network.dyn_peer[141]  lookupTimeSig:vector  ETV
vector 364293  Network.dyn_peer[146]  lookupHopsSig:vector  ETV
vector 364292  Network.dyn_peer[146]  lookupTimeSig:vector  ETV
vector 364291  Network.dyn_peer[145]  lookupHopsSig:vector  ETV
vector 364290  Network.dyn_peer[145]  lookupTimeSig:vector  ETV
vector 364295  Network.dyn_peer[147]  lookupHopsSig:vector  ETV
vector 364294  Network.dyn_peer[147]  lookupTimeSig:vector  ETV
vector 364297  Network.dyn_peer[148]  lookupHopsSig:vector  ETV
vector 364296  Network.dyn_peer[148]  lookupTimeSig:vector  ETV
vector 364301  Network.dyn_peer[150]  lookupHopsSig:vector  ETV
vector 364300  Network.dyn_peer[150]  lookupTimeSig:vector  ETV
vector 364299  Network.dyn_peer[149]  lookupHopsSig:vector  ETV
vector 364298  Network.dyn_peer[149]  lookupTimeSig:vector  ETV
vector 364305  Network.dyn_peer[152]  lookupHopsSig:vector  ETV
vector 364304  Network.dyn_peer[152]  lookupTimeSig:vector  ETV
vector 364309  Network.dyn_peer[154]  lookupHopsSig:vector  ETV
vector 364308  Network.dyn_peer[154]  lookupTimeSig:vector  ETV
vector 364303  Network.dyn_peer[151]  lookupHopsSig:vector  ETV
vector 364302  Network.dyn_peer[151]  lookupTimeSig:vector  ETV
vector 364311  Network.dyn_peer[155]  lookupHopsSig:vector  ETV
vector 364310  Network.dyn_peer[155]  lookupTimeSig:vector  ETV
vector 364317  Network.dyn_peer[158]  lookupHopsSig:vector  ETV
vector 364316  Network.dyn_peer[158]  lookupTimeSig:vector  ETV
vector 364313  Network.dyn_peer[156]  lookupHopsSig:vector  ETV
vector 364312  Network.dyn_peer[156]  lookupTimeSig:vector  ETV
vector 364315  Network.dyn_peer[157]  lookupHopsSig:vector  ETV
vector 364314  Network.dyn_peer[157]  lookupTimeSig:vector  ETV
vector 364307  Network.dyn_peer[153]  lookupHopsSig:vector  ETV
vector 364306  Network.dyn_peer[153]  lookupTimeSig:vector  ETV
vector 364319  Network.dyn_peer[159]  lookupHopsSig:vector  ETV
vector 364318  Network.dyn_peer[159]  lookupTimeSig:vector  ETV
vector 364321  Network.dyn_peer[160]  lookupHopsSig:vector  ETV
vector 364320  Network.dyn_peer[160]  lookupTimeSig:vector  ETV
vector 364323  Network.dyn_peer[161]  lookupHopsSig:vector  ETV
vector 364322  Network.dyn_peer[161]  lookupTimeSig:vector  ETV
vector 364325  Network.dyn_peer[162]  lookupHopsSig:vector  ETV
vector 364324  Network.dyn_peer[162]  lookupTimeSig:vector  ETV
vector 364327  Network.dyn_peer[163]  lookupHopsSig:vector  ETV
vector 364326  Network.dyn_peer[163]  lookupTimeSig:vector  ETV
vector 364331  Network.dyn_peer[165]  lookupHopsSig:vector  ETV
vector 364330  Network.dyn_peer[165]  lookupTimeSig:vector  ETV
vector 364333  Network.dyn_peer[166]  lookupHopsSig:vector  ETV
vector 364332  Network.dyn_peer[166]  lookupTimeSig:vector  ETV
vector 364343  Network.dyn_peer[171]  lookupHopsSig:vector  ETV
vector 364342  Network.dyn_peer[171]  lookupTimeSig:vector  ETV
vector 364329  Network.dyn_peer[164]  lookupHopsSig:vector  ETV
vector 364328  Network.dyn_peer[164]  lookupTimeSig:vector  ETV
vector 364339  Network.dyn_peer[169]  lookupHopsSig:vector  ETV
vector 364338  Network.dyn_peer[169]  lookupTimeSig:vector  ETV
vector 364347  Network.dyn_peer[173]  lookupHopsSig:vector  ETV
vector 364346  Network.dyn_peer[173]  lookupTimeSig:vector  ETV
vector 364341  Network.dyn_peer[170]  lookupHopsSig:vector  ETV
vector 364340  Network.dyn_peer[170]  lookupTimeSig:vector  ETV
vector 364337  Network.dyn_peer[168]  lookupHopsSig:vector  ETV
vector 364336  Network.dyn_peer[168]  lookupTimeSig:vector  ETV
vector 364353  Network.dyn_peer[176]  lookupHopsSig:vector  ETV
vector 364352  Network.dyn_peer[176]  lookupTimeSig:vector  ETV
vector 364335  Network.dyn_peer[167]  lookupHopsSig:vector  ETV
vector 364334  Network.dyn_peer[167]  lookupTimeSig:vector  ETV
vector 364345  Network.dyn_peer[172]  lookupHopsSig:vector  ETV
vector 364344  Network.dyn_peer[172]  lookupTimeSig:vector  ETV
vector 364349  Network.dyn_peer[174]  lookupHopsSig:vector  ETV
vector 364348  Network.dyn_peer[174]  lookupTimeSig:vector  ETV
vector 364359  Network.dyn_peer[179]  lookupHopsSig:vector  ETV
vector 364358  Network.dyn_peer[179]  lookupTimeSig:vector  ETV
vector 364355  Network.dyn_peer[177]  lookupHopsSig:vector  ETV
vector 364354  Network.dyn_peer[177]  lookupTimeSig:vector  ETV
vector 364365  Network.dyn_peer[182]  lookupHopsSig:vector  ETV
vector 364364  Network.dyn_peer[182]  lookupTimeSig:vector  ETV
vector 364367  Network.dyn_peer[183]  lookupHopsSig:vector  ETV
vector 364366  Network.dyn_peer[183]  lookupTimeSig:vector  ETV
vector 364351  Network.dyn_peer[175]  lookupHopsSig:vector  ETV
vector 364350  Network.dyn_peer[175]  lookupTimeSig:vector  ETV
vector 364369  Network.dyn_peer[184]  lookupHopsSig:vector  ETV
vector 364368  Network.dyn_peer[184]  lookupTimeSig:vector  ETV
vector 364357  Network.dyn_peer[178]  lookupHopsSig:vector  ETV
vector 364356  Network.dyn_peer[178]  lookupTimeSig:vector  ETV
vector 364377  Network.dyn_peer[188]  lookupHopsSig:vector  ETV
vector 364376  Network.dyn_peer[188]  lookupTimeSig:vector  ETV
vector 364363  Network.dyn_peer[181]  lookupHopsSig:vector  ETV
vector 364362  Network.dyn_peer[181]  lookupTimeSig:vector  ETV
vector 364371  Network.dyn_peer[185]  lookupHopsSig:vector  ETV
vector 364370  Network.dyn_peer[185]  lookupTimeSig:vector  ETV
vector 364373  Network.dyn_peer[186]  lookupHopsSig:vector  ETV
vector 364372  Network.dyn_peer[186]  lookupTimeSig:vector  ETV
vector 364375  Network.dyn_peer[187]  lookupHopsSig:vector  ETV
vector 364374  Network.dyn_peer[187]  lookupTimeSig:vector  ETV
vector 364361  Network.dyn_peer[180]  lookupHopsSig:vector  ETV
vector 364360  Network.dyn_peer[180]  lookupTimeSig:vector  ETV
vector 364379  Network.dyn_peer[189]  lookupHopsSig:vector  ETV
vector 364378  Network.dyn_peer[189]  lookupTimeSig:vector  ETV
vector 364381  Network.dyn_peer[190]  lookupHopsSig:vector  ETV
vector 364380  Network.dyn_peer[190]  lookupTimeSig:vector  ETV
vector 364385  Network.dyn_peer[192]  lookupHopsSig:vector  ETV
vector 364384  Network.dyn_peer[192]  lookupTimeSig:vector  ETV
vector 364393  Network.dyn_peer[196]  lookupHopsSig:vector  ETV
vector 364392  Network.dyn_peer[196]  lookupTimeSig:vector  ETV
vector 364389  Network.dyn_peer[194]  lookupHopsSig:vector  ETV
vector 364388  Network.dyn_peer[194]  lookupTimeSig:vector  ETV
vector 364387  Network.dyn_peer[193]  lookupHopsSig:vector  ETV
vector 364386  Network.dyn_peer[193]  lookupTimeSig:vector  ETV
vector 364395  Network.dyn_peer[197]  lookupHopsSig:vector  ETV
vector 364394  Network.dyn_peer[197]  lookupTimeSig:vector  ETV
vector 364391  Network.dyn_peer[195]  lookupHopsSig:vector  ETV
vector 364390  Network.dyn_peer[195]  lookupTimeSig:vector  ETV
vector 364383  Network.dyn_peer[191]  lookupHopsSig:vector  ETV
vector 364382  Network.dyn_peer[191]  lookupTimeSig:vector  ETV
vector 364399  Network.dyn_peer[199]  lookupHopsSig:vector  ETV
vector 364398  Network.dyn_peer[199]  lookupTimeSig:vector  ETV
vector 364411  Network.dyn_peer[205]  lookupHopsSig:vector  ETV
vector 364410  Network.dyn_peer[205]  lookupTimeSig:vector  ETV
vector 364397  Network.dyn_peer[198]  lookupHopsSig:vector  ETV
vector 364396  Network.dyn_peer[198]  lookupTimeSig:vector  ETV
vector 364407  Network.dyn_peer[203]  lookupHopsSig:vector  ETV
vector 364406  Network.dyn_peer[203]  lookupTimeSig:vector  ETV
vector 364403  Network.dyn_peer[201]  lookupHopsSig:vector  ETV
vector 364402  Network.dyn_peer[201]  lookupTimeSig:vector  ETV
vector 364413  Network.dyn_peer[206]  lookupHopsSig:vector  ETV
vector 364412  Network.dyn_peer[206]  lookupTimeSig:vector  ETV
vector 364401  Network.dyn_peer[200]  lookupHopsSig:vector  ETV
vector 364400  Network.dyn_peer[200]  lookupTimeSig:vector  ETV
vector 364419  Network.dyn_peer[209]  lookupHopsSig:vector  ETV
vector 364418  Network.dyn_peer[209]  lookupTimeSig:vector  ETV
vector 364409  Network.dyn_peer[204]  lookupHopsSig:vector  ETV
vector 364408  Network.dyn_peer[204]  lookupTimeSig:vector  ETV
vector 364405  Network.dyn_peer[202]  lookupHopsSig:vector  ETV
vector 364404  Network.dyn_peer[202]  lookupTimeSig:vector  ETV
vector 364427  Network.dyn_peer[213]  lookupHopsSig:vector  ETV
vector 364426  Network.dyn_peer[213]  lookupTimeSig:vector  ETV
vector 364421  Network.dyn_peer[210]  lookupHopsSig:vector  ETV
vector 364420  Network.dyn_peer[210]  lookupTimeSig:vector  ETV
vector 364433  Network.dyn_peer[216]  lookupHopsSig:vector  ETV
vector 364432  Network.dyn_peer[216]  lookupTimeSig:vector  ETV
vector 364429  Network.dyn_peer[214]  lookupHopsSig:vector  ETV
vector 364428  Network.dyn_peer[214]  lookupTimeSig:vector  ETV
vector 364437  Network.dyn_peer[218]  lookupHopsSig:vector  ETV
vector 364436  Network.dyn_peer[218]  lookupTimeSig:vector  ETV
vector 364425  Network.dyn_peer[212]  lookupHopsSig:vector  ETV
vector 364424  Network.dyn_peer[212]  lookupTimeSig:vector  ETV
vector 364417  Network.dyn_peer[208]  lookupHopsSig:vector  ETV
vector 364416  Network.dyn_peer[208]  lookupTimeSig:vector  ETV
vector 364415  Network.dyn_peer[207]  lookupHopsSig:vector  ETV
vector 364414  Network.dyn_peer[207]  lookupTimeSig:vector  ETV
vector 364423  Network.dyn_peer[211]  lookupHopsSig:vector  ETV
vector 364422  Network.dyn_peer[211]  lookupTimeSig:vector  ETV
vector 364445  Network.dyn_peer[222]  lookupHopsSig:vector  ETV
vector 364444  Network.dyn_peer[222]  lookupTimeSig:vector  ETV
vector 364441  Network.dyn_peer[220]  lookupHopsSig:vector  ETV
vector 364440  Network.dyn_peer[220]  lookupTimeSig:vector  ETV
vector 364443  Network.dyn_peer[221]  lookupHopsSig:vector  ETV
vector 364442  Network.dyn_peer[221]  lookupTimeSig:vector  ETV
vector 364439  Network.dyn_peer[219]  lookupHopsSig:vector  ETV
vector 364438  Network.dyn_peer[219]  lookupTimeSig:vector  ETV
vector 364435  Network.dyn_peer[217]  lookupHopsSig:vector  ETV
vector 364434  Network.dyn_peer[217]  lookupTimeSig:vector  ETV
vector 364431  Network.dyn_peer[215]  lookupHopsSig:vector  ETV
vector 364430  Network.dyn_peer[215]  lookupTimeSig:vector  ETV
vector 364449  Network.dyn_peer[224]  lookupHopsSig:vector  ETV
vector 364448  Network.dyn_peer[224]  lookupTimeSig:vector  ETV
vector 364457  Network.dyn_peer[228]  lookupHopsSig:vector  ETV
vector 364456  Network.dyn_peer[228]  lookupTimeSig:vector  ETV
vector 364451  Network.dyn_peer[225]  lookupHopsSig:vector  ETV
vector 364450  Network.dyn_peer[225]  lookupTimeSig:vector  ETV
vector 364455  Network.dyn_peer[227]  lookupHopsSig:vector  ETV
vector 364454  Network.dyn_peer[227]  lookupTimeSig:vector  ETV
vector 364465  Network.dyn_peer[232]  lookupHopsSig:vector  ETV
vector 364464  Network.dyn_peer[232]  lookupTimeSig:vector  ETV
vector 364467  Network.dyn_peer[233]  lookupHopsSig:vector  ETV
vector 364466  Network.dyn_peer[233]  lookupTimeSig:vector  ETV
vector 364453  Network.dyn_peer[226]  lookupHopsSig:vector  ETV
vector 364452  Network.dyn_peer[226]  lookupTimeSig:vector  ETV
vector 364447  Network.dyn_peer[223]  lookupHopsSig:vector  ETV
vector 364446  Network.dyn_peer[223]  lookupTimeSig:vector  ETV
vector 364459  Network.dyn_peer[229]  lookupHopsSig:vector  ETV
vector 364458  Network.dyn_peer[229]  lookupTimeSig:vector  ETV