file 1032943 1369674147                                         
version 2
run Stability-70-20130521-22:27:17-23591
attr configname Stability
attr datetime 20130521-22:27:17
attr experiment Stability
attr inifile omnetpp.ini
attr iterationvars $0=2
attr iterationvars2 "$0=2, $repetition=10"
attr measurement $0=2
attr network Network
attr processid 23591
attr repetition 10
attr replication #10
attr resultdir results
attr runnumber 70
attr seedset 70
vector 140001  Network.dyn_peer[0]  lookupHopsSig:vector  ETV
140001	129138 912 102 120548 22.2 1375.026753332266 30 1 18 135 1069
vector 140000  Network.dyn_peer[0]  lookupTimeSig:vector  ETV
140000	128169 969 102 120548 22.2 1375.026753332266 30 0.2 1.9 16.4 13.64
vector 140003  Network.dyn_peer[1]  lookupHopsSig:vector  ETV
140003	131898 1767 144 206129 24.4 1986.728316691834 55 1 30 506 6876
vector 140002  Network.dyn_peer[1]  lookupTimeSig:vector  ETV
140002	130050 1848 144 206129 24.4 1986.728316691834 55 0.2 3.1 56 79.34
vector 140005  Network.dyn_peer[2]  lookupHopsSig:vector  ETV
140005	135272 1524 179 161120 26.2 1685.223953218586 48 2 36 377 4809
vector 140004  Network.dyn_peer[2]  lookupTimeSig:vector  ETV
140004	133665 1607 179 161120 26.2 1685.223953218586 48 0.2 3.7 42.4 56.06
vector 140007  Network.dyn_peer[3]  lookupHopsSig:vector  ETV
140007	138380 1508 206 136330 28.2 1496.434344873103 48 1 24 330 3606
vector 140006  Network.dyn_peer[3]  lookupTimeSig:vector  ETV
140006	136796 1584 206 136330 28.2 1496.434344873103 48 0.2 2.5 37.7 43.09
vector 140009  Network.dyn_peer[4]  lookupHopsSig:vector  ETV
140009	140646 726 233 84528 30.4 1089.727924586745 24 1 19 175 2027
vector 140008  Network.dyn_peer[4]  lookupTimeSig:vector  ETV
140008	139888 758 233 84528 30.4 1089.727924586745 24 0.2 2 19.8 23.92
vector 140011  Network.dyn_peer[5]  lookupHopsSig:vector  ETV
140011	142900 1458 277 211095 32.4 2022.137972893887 46 1 53 405 7127
vector 140010  Network.dyn_peer[5]  lookupTimeSig:vector  ETV
140010	141372 1528 277 211095 32.4 2022.137972893887 46 0.2 5.4 45 79.74
vector 140013  Network.dyn_peer[6]  lookupHopsSig:vector  ETV
140013	146346 1901 321 149089 34.2 1598.02248077992 59 1 25 519 6809
vector 140012  Network.dyn_peer[6]  lookupTimeSig:vector  ETV
140012	144358 1988 321 149089 34.2 1598.02248077992 59 0.2 2.6 57.7 79.01
vector 140015  Network.dyn_peer[7]  lookupHopsSig:vector  ETV
140015	149616 1306 357 132309 36.1 1467.309324093567 41 1 27 346 4670
vector 140014  Network.dyn_peer[7]  lookupTimeSig:vector  ETV
140014	148247 1369 357 132309 36.1 1467.309324093567 41 0.1 2.8 38.6 54
vector 140017  Network.dyn_peer[8]  lookupHopsSig:vector  ETV
140017	151847 879 394 159862 38 1676.612420024283 29 0 20 187 1885
vector 140016  Network.dyn_peer[8]  lookupTimeSig:vector  ETV
140016	150922 925 394 159862 38 1676.612420024283 29 0 2.1 21.5 22.87
vector 140019  Network.dyn_peer[9]  lookupHopsSig:vector  ETV
140019	153698 921 426 190699 40.3 1878.213462772994 30 1 22 204 2162
vector 140018  Network.dyn_peer[9]  lookupTimeSig:vector  ETV
140018	152726 972 426 190699 40.3 1878.213462772994 30 0.2 2.3 23.3 25.93
vector 140021  Network.dyn_peer[10]  lookupHopsSig:vector  ETV
140021	155402 751 512 117051 42.4 1348.013997116257 24 2 27 249 3619
vector 140020  Network.dyn_peer[10]  lookupTimeSig:vector  ETV
140020	154619 783 512 117051 42.4 1348.013997116257 24 0.3 2.8 27.2 41.32
vector 140023  Network.dyn_peer[11]  lookupHopsSig:vector  ETV
140023	157287 1080 543 165570 44.1 1715.426363542703 34 1 35 290 4162
vector 140022  Network.dyn_peer[11]  lookupTimeSig:vector  ETV
140022	156153 1134 543 165570 44.1 1715.426363542703 34 0.1 3.6 32.3 47.73
vector 140025  Network.dyn_peer[12]  lookupHopsSig:vector  ETV
140025	159515 1102 570 141596 46.2 1537.628904715488 34 1 49 343 5927
vector 140024  Network.dyn_peer[12]  lookupTimeSig:vector  ETV
140024	158367 1148 570 141596 46.2 1537.628904715488 34 0.2 5 37.6 66.42
vector 140027  Network.dyn_peer[13]  lookupHopsSig:vector  ETV
140027	161970 1298 600 166295 48.5 1719.926187804927 41 1 28 379 5459
vector 140026  Network.dyn_peer[13]  lookupTimeSig:vector  ETV
140026	160617 1353 600 166295 48.5 1719.926187804927 41 0.2 2.9 41.9 62.47
vector 140029  Network.dyn_peer[14]  lookupHopsSig:vector  ETV
140029	163910 612 635 192095 50.3 1887.233072957095 20 1 29 152 2382
vector 140028  Network.dyn_peer[14]  lookupTimeSig:vector  ETV
140028	163268 642 635 192095 50.3 1887.233072957095 20 0.2 3 17.1 26.99
vector 140031  Network.dyn_peer[15]  lookupHopsSig:vector  ETV
140031	166129 1546 747 192030 52.2 1886.722735276293 48 1 37 476 7654
vector 140030  Network.dyn_peer[15]  lookupTimeSig:vector  ETV
140030	164522 1607 747 192030 52.2 1886.722735276293 48 0.2 3.8 52.3 86.49
vector 140033  Network.dyn_peer[16]  lookupHopsSig:vector  ETV
140033	168822 1093 841 72347 54.3 976.758884883709 35 1 29 272 3426
vector 140032  Network.dyn_peer[16]  lookupTimeSig:vector  ETV
140032	167675 1147 841 72347 54.3 976.758884883709 35 0.2 3 30.6 39.98
vector 140035  Network.dyn_peer[17]  lookupHopsSig:vector  ETV
140035	171764 1758 875 176442 56.5 1787.724425628707 56 1 26 414 4506
vector 140034  Network.dyn_peer[17]  lookupTimeSig:vector  ETV
140034	169915 1849 875 176442 56.5 1787.724425628707 56 0.2 2.7 46.9 53.79
vector 140037  Network.dyn_peer[18]  lookupHopsSig:vector  ETV
140037	174926 1336 904 174481 58.1 1773.227717537261 43 1 25 308 3532
vector 140036  Network.dyn_peer[18]  lookupTimeSig:vector  ETV
140036	173522 1404 904 174481 58.1 1773.227717537261 43 0.1 2.6 35 41.88
vector 140039  Network.dyn_peer[19]  lookupHopsSig:vector  ETV
140039	177587 1256 983 179371 60.5 1810.330379229708 40 1 34 332 4900
vector 140038  Network.dyn_peer[19]  lookupTimeSig:vector  ETV
140038	176262 1325 983 179371 60.5 1810.330379229708 40 0.2 3.5 37.1 55.93
vector 140041  Network.dyn_peer[20]  lookupHopsSig:vector  ETV
140041	180075 1168 1044 106532 62.3 1271.142983881007 37 1 17 232 2068
vector 140040  Network.dyn_peer[20]  lookupTimeSig:vector  ETV
140040	178843 1232 1044 106532 62.3 1271.142983881007 37 0.2 1.8 26.8 25.62
vector 140043  Network.dyn_peer[21]  lookupHopsSig:vector  ETV
140043	183504 2160 1096 209955 64 2013.532566518122 67 0 39 627 10025
vector 140042  Network.dyn_peer[21]  lookupTimeSig:vector  ETV
140042	181243 2261 1096 209955 64 2013.532566518122 67 0 4 69.3 113.45
vector 140045  Network.dyn_peer[22]  lookupHopsSig:vector  ETV
140045	186228 531 1128 74126 66 994.921232726185 18 0 16 82 590
vector 140044  Network.dyn_peer[22]  lookupTimeSig:vector  ETV
140044	185664 564 1128 74126 66 994.921232726185 18 0 1.7 9.9 7.71
vector 140047  Network.dyn_peer[23]  lookupHopsSig:vector  ETV
140047	187968 1151 1184 75376 68.2 1006.72414721509 37 1 19 198 1586
vector 140046  Network.dyn_peer[23]  lookupTimeSig:vector  ETV
140046	186759 1209 1184 75376 68.2 1006.72414721509 37 0.2 2 23.4 20.14
vector 140049  Network.dyn_peer[24]  lookupHopsSig:vector  ETV
140049	190712 1513 1282 116050 70.3 1341.51721768424 48 1 20 345 3313
vector 140048  Network.dyn_peer[24]  lookupTimeSig:vector  ETV
140048	189119 1593 1282 116050 70.3 1341.51721768424 48 0.2 2.1 39.2 40.44
vector 140051  Network.dyn_peer[25]  lookupHopsSig:vector  ETV
140051	192363 128 1338 1488 72.2 74.810316722575 5 2 7 24 130
vector 140050  Network.dyn_peer[25]  lookupTimeSig:vector  ETV
140050	192225 138 1338 1488 72.2 74.810316722575 5 0.2 0.8 2.8 1.78
vector 140053  Network.dyn_peer[26]  lookupHopsSig:vector  ETV
140053	193877 1326 1453 202781 74.3 1962.528571312842 41 2 25 366 4592
vector 140052  Network.dyn_peer[26]  lookupTimeSig:vector  ETV
140052	192491 1386 1453 202781 74.3 1962.528571312842 41 0.3 2.6 40.6 53.58
vector 140055  Network.dyn_peer[27]  lookupHopsSig:vector  ETV
140055	196851 1578 1542 194660 76.5 1907.522482693687 49 1 31 498 7816
vector 140054  Network.dyn_peer[27]  lookupTimeSig:vector  ETV
140054	195203 1648 1542 194660 76.5 1907.522482693687 49 0.2 3.2 54.6 88.5
vector 140057  Network.dyn_peer[28]  lookupHopsSig:vector  ETV
140057	199696 1202 1571 142162 78.2 1541.946847018405 38 1 18 249 2291
vector 140056  Network.dyn_peer[28]  lookupTimeSig:vector  ETV
140056	198429 1267 1571 142162 78.2 1541.946847018405 38 0.2 1.9 28.6 28.22
vector 140059  Network.dyn_peer[29]  lookupHopsSig:vector  ETV
140059	202622 1642 1644 139307 80.6 1517.057353273531 51 1 33 419 5275
vector 140058  Network.dyn_peer[29]  lookupTimeSig:vector  ETV
140058	200898 1724 1644 139307 80.6 1517.057353273531 51 0.2 3.4 46.9 61.51
vector 140061  Network.dyn_peer[30]  lookupHopsSig:vector  ETV
140061	205759 1422 1670 174634 82.1 1774.629492462999 45 1 30 328 3892
vector 140060  Network.dyn_peer[30]  lookupTimeSig:vector  ETV
140060	204264 1495 1670 174634 82.1 1774.629492462999 45 0.1 3.1 37.2 45.9
vector 140063  Network.dyn_peer[31]  lookupHopsSig:vector  ETV
140063	208315 1079 1726 210450 84.3 2017.618057178348 34 1 25 310 4584
vector 140062  Network.dyn_peer[31]  lookupTimeSig:vector  ETV
140062	207181 1134 1726 210450 84.3 2017.618057178348 34 0.2 2.6 34.3 52.31
vector 140065  Network.dyn_peer[32]  lookupHopsSig:vector  ETV
140065	209709 301 1763 193433 86.3 1897.521864951712 10 1 18 83 993
vector 140064  Network.dyn_peer[32]  lookupTimeSig:vector  ETV
140064	209394 315 1763 193433 86.3 1897.521864951712 10 0.2 1.9 9.2 11.62
vector 140067  Network.dyn_peer[33]  lookupHopsSig:vector  ETV
140067	211310 1235 1829 158782 88.3 1669.817070006823 39 1 32 340 5170
vector 140066  Network.dyn_peer[33]  lookupTimeSig:vector  ETV
140066	210010 1300 1829 158782 88.3 1669.817070006823 39 0.2 3.3 37.8 58.82
vector 140069  Network.dyn_peer[34]  lookupHopsSig:vector  ETV
140069	213397 815 1870 199921 90.4 1941.150494278129 26 1 33 280 4638
vector 140068  Network.dyn_peer[34]  lookupTimeSig:vector  ETV
140068	212545 852 1870 199921 90.4 1941.150494278129 26 0.2 3.4 30.5 52.15
vector 140071  Network.dyn_peer[35]  lookupHopsSig:vector  ETV
140071	215345 1070 1922 118154 92.4 1356.716774153949 35 1 33 220 2798
vector 140070  Network.dyn_peer[35]  lookupTimeSig:vector  ETV
140070	214212 1133 1922 118154 92.4 1356.716774153949 35 0.2 3.4 25.4 32.64
vector 140073  Network.dyn_peer[36]  lookupHopsSig:vector  ETV
140073	217630 1157 1986 101421 94.3 1230.414786658534 37 1 27 302 3698
vector 140072  Network.dyn_peer[36]  lookupTimeSig:vector  ETV
140072	216415 1215 1986 101421 94.3 1230.414786658534 37 0.2 2.8 33.8 43.32
vector 140075  Network.dyn_peer[37]  lookupHopsSig:vector  ETV
140075	220044 1202 2051 142360 96.5 1543.542990967721 37 2 21 344 4070
vector 140074  Network.dyn_peer[37]  lookupTimeSig:vector  ETV
140074	218787 1257 2051 142360 96.5 1543.542990967721 37 0.3 2.2 38 47.84
vector 140077  Network.dyn_peer[38]  lookupHopsSig:vector  ETV
140077	222518 1216 2115 189122 98.4 1869.410276185716 38 2 34 434 7618
vector 140076  Network.dyn_peer[38]  lookupTimeSig:vector  ETV
140076	221246 1272 2115 189122 98.4 1869.410276185716 38 0.3 3.5 47.1 85.15
vector 140079  Network.dyn_peer[39]  lookupHopsSig:vector  ETV
140079	224941 1150 2182 122924 100.4 1393.823568850568 36 1 19 264 2694
vector 140078  Network.dyn_peer[39]  lookupTimeSig:vector  ETV
140078	223734 1207 2182 122924 100.4 1393.823568850568 36 0.2 2 29.9 32.49
vector 140081  Network.dyn_peer[40]  lookupHopsSig:vector  ETV
140081	228228 2050 2233 195022 102 1911.224399298119 63 0 34 615 8501
vector 140080  Network.dyn_peer[40]  lookupTimeSig:vector  ETV
140080	226091 2137 2233 195022 102 1911.224399298119 63 0 3.5 67.7 97.93
vector 140083  Network.dyn_peer[41]  lookupHopsSig:vector  ETV
140083	231797 1447 2281 66724 104.5 919.91605723608 46 2 28 370 4194
vector 140082  Network.dyn_peer[41]  lookupTimeSig:vector  ETV
140082	230278 1519 2281 66724 104.5 919.91605723608 46 0.3 2.9 41.5 49.69
vector 140085  Network.dyn_peer[42]  lookupHopsSig:vector  ETV
140085	233483 223 2358 2534 106.3 109.634416385331 8 1 7 29 145
vector 140084  Network.dyn_peer[42]  lookupTimeSig:vector  ETV
140084	233244 239 2358 2534 106.3 109.634416385331 8 0.2 0.8 3.6 2.04
vector 140087  Network.dyn_peer[43]  lookupHopsSig:vector  ETV
140087	235508 1719 2466 127586 108.5 1431.219423545449 54 1 24 395 4045
vector 140086  Network.dyn_peer[43]  lookupTimeSig:vector  ETV
140086	233706 1802 2466 127586 108.5 1431.219423545449 54 0.2 2.5 44.8 48.78
vector 140089  Network.dyn_peer[44]  lookupHopsSig:vector  ETV
140089	238584 1283 2565 54498 110.2 788.465225118488 41 2 24 273 2593
vector 140088  Network.dyn_peer[44]  lookupTimeSig:vector  ETV
140088	237227 1357 2565 54498 110.2 788.465225118488 41 0.2 2.5 31.3 31.75
vector 140091  Network.dyn_peer[45]  lookupHopsSig:vector  ETV
140091	241341 1415 2644 148378 112.4 1592.926033745203 44 2 25 421 5659
vector 140090  Network.dyn_peer[45]  lookupTimeSig:vector  ETV
140090	239867 1474 2644 148378 112.4 1592.926033745203 44 0.3 2.6 46.4 65.36
vector 140093  Network.dyn_peer[46]  lookupHopsSig:vector  ETV
140093	243366 578 2750 60393 114.5 850.32083609818 19 1 18 133 1263
vector 140092  Network.dyn_peer[46]  lookupTimeSig:vector  ETV
140092	242756 610 2750 60393 114.5 850.32083609818 19 0.2 1.9 15.1 15.37
vector 140095  Network.dyn_peer[47]  lookupHopsSig:vector  ETV
140095	245505 1482 2842 122771 116.4 1392.82150450475 47 1 21 329 3543
vector 140094  Network.dyn_peer[47]  lookupTimeSig:vector  ETV
140094	243944 1561 2842 122771 116.4 1392.82150450475 47 0.2 2.2 37.5 42.39
vector 140097  Network.dyn_peer[48]  lookupHopsSig:vector  ETV
140097	248037 1004 2930 132081 118 1465.732215764263 32 0 23 236 2692
vector 140096  Network.dyn_peer[48]  lookupTimeSig:vector  ETV
140096	246987 1050 2930 132081 118 1465.732215764263 32 0 2.4 26.7 31.95
vector 140099  Network.dyn_peer[49]  lookupHopsSig:vector  ETV
140099	251066 1929 3065 171036 120.2 1752.440078117725 60 1 20 465 5179
vector 140098  Network.dyn_peer[49]  lookupTimeSig:vector  ETV
140098	249041 2025 3065 171036 120.2 1752.440078117725 60 0.2 2.1 52.4 61.64
vector 140101  Network.dyn_peer[50]  lookupHopsSig:vector  ETV
140101	254619 1562 3203 118139 122.6 1356.609623602042 48 2 39 520 8262
vector 140100  Network.dyn_peer[50]  lookupTimeSig:vector  ETV
140100	252995 1624 3203 118139 122.6 1356.609623602042 48 0.3 4 56.7 93.37
vector 140103  Network.dyn_peer[51]  lookupHopsSig:vector  ETV
140103	257098 882 3329 121630 125.1 1383.924776514289 28 2 19 258 2918
vector 140102  Network.dyn_peer[51]  lookupTimeSig:vector  ETV
140102	256181 917 3329 121630 125.1 1383.924776514289 28 0.3 2 28.5 34.39
vector 140105  Network.dyn_peer[52]  lookupHopsSig:vector  ETV
140105	258389 387 3392 53548 126.2 780.018519532128 13 2 12 72 550
vector 140104  Network.dyn_peer[52]  lookupTimeSig:vector  ETV
140104	257980 409 3392 53548 126.2 780.018519532128 13 0.2 1.3 8.4 7.02
vector 140107  Network.dyn_peer[53]  lookupHopsSig:vector  ETV
140107	260256 1414 3538 200573 128.2 1945.339701299123 44 1 40 418 6696
vector 140106  Network.dyn_peer[53]  lookupTimeSig:vector  ETV
140106	258776 1480 3538 200573 128.2 1945.339701299123 44 0.2 4.1 46.1 75.71
vector 140109  Network.dyn_peer[54]  lookupHopsSig:vector  ETV
140109	263745 1991 3668 207015 130.2 1993.324090445107 60 1 37 676 11470
vector 140108  Network.dyn_peer[54]  lookupTimeSig:vector  ETV
140108	261670 2075 3668 207015 130.2 1993.324090445107 60 0.2 3.8 73.5 128.77
vector 140111  Network.dyn_peer[55]  lookupHopsSig:vector  ETV
140111	267235 1439 3747 180304 132.4 1816.514475738812 44 1 29 432 6478
vector 140110  Network.dyn_peer[55]  lookupTimeSig:vector  ETV
140110	265736 1499 3747 180304 132.4 1816.514475738812 44 0.2 3 47.5 73.77
vector 140113  Network.dyn_peer[56]  lookupHopsSig:vector  ETV
140113	269695 978 3867 171785 134.4 1756.419728915626 31 1 19 258 2904
vector 140112  Network.dyn_peer[56]  lookupTimeSig:vector  ETV
140112	268674 1021 3867 171785 134.4 1756.419728915626 31 0.2 2 28.8 34.42
vector 140115  Network.dyn_peer[57]  lookupHopsSig:vector  ETV
140115	270921 236 3957 89350 136.3 1130.029025815786 8 1 17 72 904
vector 140114  Network.dyn_peer[57]  lookupTimeSig:vector  ETV
140114	270673 248 3957 89350 136.3 1130.029025815786 8 0.2 1.8 7.9 10.49
vector 140117  Network.dyn_peer[58]  lookupHopsSig:vector  ETV
140117	272146 941 4048 120595 138.5 1375.421753940818 30 1 20 242 2634
vector 140116  Network.dyn_peer[58]  lookupTimeSig:vector  ETV
140116	271157 989 4048 120595 138.5 1375.421753940818 30 0.2 2.1 27.1 31.37
vector 140119  Network.dyn_peer[59]  lookupHopsSig:vector  ETV
140119	274267 1129 4148 200813 140.5 1947.246535523625 35 3 37 366 5694
vector 140118  Network.dyn_peer[59]  lookupTimeSig:vector  ETV
140118	273087 1180 4148 200813 140.5 1947.246535523625 35 0.4 3.8 40 64.5
vector 140121  Network.dyn_peer[60]  lookupHopsSig:vector  ETV
140121	276328 894 4258 202048 142.4 1958.125524962891 28 1 32 308 4704
vector 140120  Network.dyn_peer[60]  lookupTimeSig:vector  ETV
140120	275396 932 4258 202048 142.4 1958.125524962891 28 0.2 3.3 33.5 53.39
vector 140123  Network.dyn_peer[61]  lookupHopsSig:vector  ETV
140123	278197 928 4399 198054 144.5 1929.618297626236 29 1 26 259 3871
vector 140122  Network.dyn_peer[61]  lookupTimeSig:vector  ETV
140122	277222 975 4399 198054 144.5 1929.618297626236 29 0.2 2.7 28.7 44.07
vector 140125  Network.dyn_peer[62]  lookupHopsSig:vector  ETV
140125	280321 1138 4476 132988 146.4 1471.811480638432 36 1 27 279 3667
vector 140124  Network.dyn_peer[62]  lookupTimeSig:vector  ETV
140124	279125 1196 4476 132988 146.4 1471.811480638432 36 0.2 2.8 31.4 42.52
vector 140127  Network.dyn_peer[63]  lookupHopsSig:vector  ETV
140127	282656 1147 4570 142353 148.5 1543.535243907743 36 2 20 338 4010
vector 140126  Network.dyn_peer[63]  lookupTimeSig:vector  ETV
140126	281459 1197 4570 142353 148.5 1543.535243907743 36 0.3 2.1 37.3 47.11
vector 140129  Network.dyn_peer[64]  lookupHopsSig:vector  ETV
140129	284539 705 4701 185322 150.6 1847.646494950738 22 1 26 205 2799
vector 140128  Network.dyn_peer[64]  lookupTimeSig:vector  ETV
140128	283803 736 4701 185322 150.6 1847.646494950738 22 0.2 2.7 22.6 32.18
vector 140131  Network.dyn_peer[65]  lookupHopsSig:vector  ETV
140131	286425 1130 4870 193766 153 1899.835736524886 36 1 39 275 3621
vector 140130  Network.dyn_peer[65]  lookupTimeSig:vector  ETV
140130	285244 1181 4870 193766 153 1899.835736524886 36 0.2 4 31 41.86
vector 140133  Network.dyn_peer[66]  lookupHopsSig:vector  ETV
140133	288448 853 4950 112401 154.5 1313.90690039818 27 3 23 245 2955
vector 140132  Network.dyn_peer[66]  lookupTimeSig:vector  ETV
140132	287555 893 4950 112401 154.5 1313.90690039818 27 0.4 2.4 27.1 34.61
vector 140135  Network.dyn_peer[67]  lookupHopsSig:vector  ETV
140135	289681 357 5033 28478 156.3 494.248774174575 12 1 11 68 484
vector 140134  Network.dyn_peer[67]  lookupTimeSig:vector  ETV
140134	289301 380 5033 28478 156.3 494.248774174575 12 0.2 1.2 7.9 6.25
vector 140137  Network.dyn_peer[68]  lookupHopsSig:vector  ETV
140137	290639 582 5137 211731 158.3 2027.928197265021 18 1 38 233 4599
vector 140136  Network.dyn_peer[68]  lookupTimeSig:vector  ETV
140136	290038 601 5137 211731 158.3 2027.928197265021 18 0.2 3.9 25 50.76
vector 140139  Network.dyn_peer[69]  lookupHopsSig:vector  ETV
140139	293114 1806 5238 101407 160.4 1230.323206185177 57 1 29 425 4761
vector 140138  Network.dyn_peer[69]  lookupTimeSig:vector  ETV
140138	291221 1893 5238 101407 160.4 1230.323206185177 57 0.2 3 48.1 56.59
vector 140141  Network.dyn_peer[70]  lookupHopsSig:vector  ETV
140141	295627 674 5323 11494 162.5 265.666385632472 22 3 14 170 1534
vector 140140  Network.dyn_peer[70]  lookupTimeSig:vector  ETV
140140	294920 707 5323 11494 162.5 265.666385632472 22 0.4 1.5 19.1 18.85
vector 140143  Network.dyn_peer[71]  lookupHopsSig:vector  ETV
140143	297177 839 5446 129046 165.1 1444.233897247834 26 4 34 261 3769
vector 140142  Network.dyn_peer[71]  lookupTimeSig:vector  ETV
140142	296301 876 5446 129046 165.1 1444.233897247834 26 0.5 3.5 28.6 42.94
vector 140145  Network.dyn_peer[72]  lookupHopsSig:vector  ETV
140145	298773 720 5508 88614 166.2 1124.954073433568 23 2 18 190 1908
vector 140144  Network.dyn_peer[72]  lookupTimeSig:vector  ETV
140144	298016 757 5508 88614 166.2 1124.954073433568 23 0.2 1.9 21.2 23.06
vector 140147  Network.dyn_peer[73]  lookupHopsSig:vector  ETV
140147	300045 524 5623 165726 168.3 1716.324508085984 17 1 30 129 2089
vector 140146  Network.dyn_peer[73]  lookupTimeSig:vector  ETV
140146	299493 552 5623 165726 168.3 1716.324508085984 17 0.2 3.1 14.5 23.57
vector 140149  Network.dyn_peer[74]  lookupHopsSig:vector  ETV
140149	301795 1171 5811 168139 170.5 1732.329685918372 36 1 26 389 6133
vector 140148  Network.dyn_peer[74]  lookupTimeSig:vector  ETV
140148	300569 1226 5811 168139 170.5 1732.329685918372 36 0.2 2.7 42.4 69.36
vector 140151  Network.dyn_peer[75]  lookupHopsSig:vector  ETV
140151	303944 933 5956 49428 172.7 728.043225664502 30 2 19 223 2185
vector 140150  Network.dyn_peer[75]  lookupTimeSig:vector  ETV
140150	302966 978 5956 49428 172.7 728.043225664502 30 0.3 2 25.2 26.46
vector 140153  Network.dyn_peer[76]  lookupHopsSig:vector  ETV
140153	306514 1556 6052 97989 174.6 1200.830593480766 49 1 24 388 4456
vector 140152  Network.dyn_peer[76]  lookupTimeSig:vector  ETV
140152	304877 1637 6052 97989 174.6 1200.830593480766 49 0.2 2.5 43.6 52.68
vector 140155  Network.dyn_peer[77]  lookupHopsSig:vector  ETV
140155	309621 1486 6135 177125 176.4 1794.343931275091 46 1 29 414 5510
vector 140154  Network.dyn_peer[77]  lookupTimeSig:vector  ETV
140154	308070 1551 6135 177125 176.4 1794.343931275091 46 0.2 3 45.9 63.75
vector 140157  Network.dyn_peer[78]  lookupHopsSig:vector  ETV
140157	312082 932 6227 171962 178.7 1757.349481374392 29 2 33 300 4454
vector 140156  Network.dyn_peer[78]  lookupTimeSig:vector  ETV
140156	311107 975 6227 171962 178.7 1757.349481374392 29 0.3 3.4 32.8 50.68
vector 140159  Network.dyn_peer[79]  lookupHopsSig:vector  ETV
140159	313953 895 6268 211708 180.1 2027.607764346867 28 1 14 197 1753
vector 140158  Network.dyn_peer[79]  lookupTimeSig:vector  ETV
140158	313014 939 6268 211708 180.1 2027.607764346867 28 0.1 1.5 22.4 21.72
vector 140161  Network.dyn_peer[80]  lookupHopsSig:vector  ETV
140161	315682 801 6373 109063 182.4 1288.127785323958 25 1 22 244 3294
vector 140160  Network.dyn_peer[80]  lookupTimeSig:vector  ETV
140160	314848 834 6373 109063 182.4 1288.127785323958 25 0.2 2.3 26.8 37.98
vector 140163  Network.dyn_peer[81]  lookupHopsSig:vector  ETV
140163	317322 805 6454 200274 185.1 1943.314706936448 25 1 33 266 4242
vector 140162  Network.dyn_peer[81]  lookupTimeSig:vector  ETV
140162	316483 839 6454 200274 185.1 1943.314706936448 25 0.2 3.4 29 47.76
vector 140165  Network.dyn_peer[82]  lookupHopsSig:vector  ETV
140165	318496 347 6500 6953 186.7 193.259067963884 12 2 13 61 443
vector 140164  Network.dyn_peer[82]  lookupTimeSig:vector  ETV
140164	318127 369 6500 6953 186.7 193.259067963884 12 0.3 1.4 7.2 5.62
vector 140167  Network.dyn_peer[83]  lookupHopsSig:vector  ETV
140167	319261 395 6577 158312 188.5 1665.92279355074 13 4 21 99 1065
vector 140166  Network.dyn_peer[83]  lookupTimeSig:vector  ETV
140166	318843 418 6577 158312 188.5 1665.92279355074 13 0.5 2.2 11.1 12.65
vector 140169  Network.dyn_peer[84]  lookupHopsSig:vector  ETV
140169	320439 745 6713 193926 190.2 1901.023539218139 24 1 17 170 1602
vector 140168  Network.dyn_peer[84]  lookupTimeSig:vector  ETV
140168	319656 783 6713 193926 190.2 1901.023539218139 24 0.2 1.8 19.3 19.61
vector 140171  Network.dyn_peer[85]  lookupHopsSig:vector  ETV
140171	321779 571 6919 178785 192.7 1806.522067499685 18 2 36 209 3645
vector 140170  Network.dyn_peer[85]  lookupTimeSig:vector  ETV
140170	321184 595 6919 178785 192.7 1806.522067499685 18 0.3 3.7 22.6 40.66
vector 140173  Network.dyn_peer[86]  lookupHopsSig:vector  ETV
140173	323221 833 7008 180462 194.4 1817.411412477788 26 1 31 257 4383
vector 140172  Network.dyn_peer[86]  lookupTimeSig:vector  ETV
140172	322350 871 7008 180462 194.4 1817.411412477788 26 0.2 3.2 28.2 49.14
vector 140175  Network.dyn_peer[87]  lookupHopsSig:vector  ETV
140175	324990 895 7072 176474 196.4 1787.961611891085 28 2 23 261 3437
vector 140174  Network.dyn_peer[87]  lookupTimeSig:vector  ETV
140174	324054 936 7072 176474 196.4 1787.961611891085 28 0.3 2.4 28.8 39.78
vector 140177  Network.dyn_peer[88]  lookupHopsSig:vector  ETV
140177	326644 727 7149 203673 198.2 1968.415165454666 23 1 39 236 4138
vector 140176  Network.dyn_peer[88]  lookupTimeSig:vector  ETV
140176	325885 759 7149 203673 198.2 1968.415165454666 23 0.2 4 25.8 46.28
vector 140179  Network.dyn_peer[89]  lookupHopsSig:vector  ETV
140179	328423 1001 7255 71639 200.4 970.151241757507 32 1 19 255 2571
vector 140178  Network.dyn_peer[89]  lookupTimeSig:vector  ETV
140178	327371 1052 7255 71639 200.4 970.151241757507 32 0.2 2 28.6 31.04
vector 140181  Network.dyn_peer[90]  lookupHopsSig:vector  ETV
140181	329800 356 7361 59003 202.8 836.115964465879 12 3 26 115 1523
vector 140180  Network.dyn_peer[90]  lookupTimeSig:vector  ETV
140180	329424 376 7361 59003 202.8 836.115964465879 12 0.4 2.7 12.6 17.48
vector 140183  Network.dyn_peer[91]  lookupHopsSig:vector  ETV
140183	331068 864 7503 61187 205.2 856.851080935077 28 2 12 166 1186
vector 140182  Network.dyn_peer[91]  lookupTimeSig:vector  ETV
140182	330156 912 7503 61187 205.2 856.851080935077 28 0.3 1.3 19.3 15.21
vector 140185  Network.dyn_peer[92]  lookupHopsSig:vector  ETV
140185	333493 1498 7589 169851 206.4 1744.024310187122 46 1 29 453 6321
vector 140184  Network.dyn_peer[92]  lookupTimeSig:vector  ETV
140184	331932 1561 7589 169851 206.4 1744.024310187122 46 0.2 3 49.8 72.64
vector 140187  Network.dyn_peer[93]  lookupHopsSig:vector  ETV
140187	336285 1235 7765 204932 208.8 1978.422500436325 38 1 37 363 5327
vector 140186  Network.dyn_peer[93]  lookupTimeSig:vector  ETV
140186	334991 1294 7765 204932 208.8 1978.422500436325 38 0.2 3.8 40 60.74
vector 140189  Network.dyn_peer[94]  lookupHopsSig:vector  ETV
140189	338123 582 7836 132854 210.3 1470.625249281127 18 3 26 217 3353
vector 140188  Network.dyn_peer[94]  lookupTimeSig:vector  ETV
140188	337520 603 7836 132854 210.3 1470.625249281127 18 0.3 2.7 23.4 37.98
vector 140191  Network.dyn_peer[95]  lookupHopsSig:vector  ETV
140191	339661 911 7967 84078 212.5 1085.132415735119 29 2 19 237 2413
vector 140190  Network.dyn_peer[95]  lookupTimeSig:vector  ETV
140190	338705 956 7967 84078 212.5 1085.132415735119 29 0.3 2 26.5 29.05
vector 140193  Network.dyn_peer[96]  lookupHopsSig:vector  ETV
140193	340918 329 8163 128491 215.1 1439.411599421172 11 4 15 83 793
vector 140192  Network.dyn_peer[96]  lookupTimeSig:vector  ETV
140192	340572 346 8163 128491 215.1 1439.411599421172 11 0.5 1.6 9.3 9.47
vector 140195  Network.dyn_peer[97]  lookupHopsSig:vector  ETV
140195	342641 1337 8265 133658 216.4 1477.343722834868 41 2 27 381 4929
vector 140194  Network.dyn_peer[97]  lookupTimeSig:vector  ETV
140194	341247 1394 8265 133658 216.4 1477.343722834868 41 0.3 2.8 42.1 57.23
vector 140197  Network.dyn_peer[98]  lookupHopsSig:vector  ETV
140197	344616 609 8479 189252 218.6 1870.119004836711 19 1 31 192 3162
vector 140196  Network.dyn_peer[98]  lookupTimeSig:vector  ETV
140196	343978 638 8479 189252 218.6 1870.119004836711 19 0.2 3.2 21 35.52
vector 140199  Network.dyn_peer[99]  lookupHopsSig:vector  ETV
140199	345567 326 8629 40576 220.8 628.63052072424 11 3 13 92 908
vector 140198  Network.dyn_peer[99]  lookupTimeSig:vector  ETV
140198	345225 342 8629 40576 220.8 628.63052072424 11 0.4 1.4 10.2 10.86
vector 140201  Network.dyn_peer[100]  lookupHopsSig:vector  ETV
140201	347010 1067 8775 62099 223.2 866.540118670922 34 1 23 286 3282
vector 140200  Network.dyn_peer[100]  lookupTimeSig:vector  ETV
140200	345893 1117 8775 62099 223.2 866.540118670922 34 0.2 2.4 31.9 38.63
vector 140203  Network.dyn_peer[101]  lookupHopsSig:vector  ETV
140203	348699 593 8869 81050 224.6 1059.149495429364 19 2 19 137 1317
vector 140202  Network.dyn_peer[101]  lookupTimeSig:vector  ETV
140202	348077 622 8869 81050 224.6 1059.149495429364 19 0.3 2 15.5 15.97
vector 140205  Network.dyn_peer[102]  lookupHopsSig:vector  ETV
140205	350370 1035 9002 153687 226.9 1633.855900353985 32 1 25 306 3676
vector 140204  Network.dyn_peer[102]  lookupTimeSig:vector  ETV
140204	349292 1078 9002 153687 226.9 1633.855900353985 32 0.2 2.6 33.7 43.01
vector 140207  Network.dyn_peer[103]  lookupHopsSig:vector  ETV
140207	352670 1213 9067 129681 228.6 1449.111582805895 37 1 28 392 5822
vector 140206  Network.dyn_peer[103]  lookupTimeSig:vector  ETV
140206	351405 1265 9067 129681 228.6 1449.111582805895 37 0.2 2.9 42.8 66.3
vector 140209  Network.dyn_peer[104]  lookupHopsSig:vector  ETV
140209	354398 490 9139 47724 230.3 709.214374858902 16 3 20 155 2047
vector 140208  Network.dyn_peer[104]  lookupTimeSig:vector  ETV
140208	353883 515 9139 47724 230.3 709.214374858902 16 0.3 2.1 17 23.66
vector 140211  Network.dyn_peer[105]  lookupHopsSig:vector  ETV
140211	355733 806 9245 211726 232.2 2027.834923297222 25 2 36 249 4185
vector 140210  Network.dyn_peer[105]  lookupTimeSig:vector  ETV
140210	354888 845 9245 211726 232.2 2027.834923297222 25 0.2 3.7 27.3 47.03
vector 140213  Network.dyn_peer[106]  lookupHopsSig:vector  ETV
140213	357348 783 9345 169725 234.5 1743.163322228937 24 1 23 271 3901
vector 140212  Network.dyn_peer[106]  lookupTimeSig:vector  ETV
140212	356539 809 9345 169725 234.5 1743.163322228937 24 0.2 2.4 29.4 44.56
vector 140215  Network.dyn_peer[107]  lookupHopsSig:vector  ETV
140215	358750 587 9479 96616 236.4 1190.935925004125 19 1 26 142 1824
vector 140214  Network.dyn_peer[107]  lookupTimeSig:vector  ETV
140214	358131 619 9479 96616 236.4 1190.935925004125 19 0.2 2.7 16 21.18
vector 140217  Network.dyn_peer[108]  lookupHopsSig:vector  ETV
140217	359961 590 9597 106673 238.5 1271.931814159752 19 3 22 137 1305
vector 140216  Network.dyn_peer[108]  lookupTimeSig:vector  ETV
140216	359337 624 9597 106673 238.5 1271.931814159752 19 0.4 2.3 15.5 15.87