file 1082379 1369168046                                         
version 2
run Stability-71-20130521-22:27:21-23591
attr configname Stability
attr datetime 20130521-22:27:21
attr experiment Stability
attr inifile omnetpp.ini
attr iterationvars $0=2
attr iterationvars2 "$0=2, $repetition=11"
attr measurement $0=2
attr network Network
attr processid 23591
attr repetition 11
attr replication #11
attr resultdir results
attr runnumber 71
attr seedset 71

vector 142001  Network.dyn_peer[0]  lookupHopsSig:vector  ETV
vector 142000  Network.dyn_peer[0]  lookupTimeSig:vector  ETV
vector 142003  Network.dyn_peer[1]  lookupHopsSig:vector  ETV
vector 142002  Network.dyn_peer[1]  lookupTimeSig:vector  ETV
vector 142005  Network.dyn_peer[2]  lookupHopsSig:vector  ETV
vector 142004  Network.dyn_peer[2]  lookupTimeSig:vector  ETV
vector 142007  Network.dyn_peer[3]  lookupHopsSig:vector  ETV
vector 142006  Network.dyn_peer[3]  lookupTimeSig:vector  ETV
vector 142009  Network.dyn_peer[4]  lookupHopsSig:vector  ETV
vector 142008  Network.dyn_peer[4]  lookupTimeSig:vector  ETV
vector 142011  Network.dyn_peer[5]  lookupHopsSig:vector  ETV
vector 142010  Network.dyn_peer[5]  lookupTimeSig:vector  ETV
vector 142013  Network.dyn_peer[6]  lookupHopsSig:vector  ETV
vector 142012  Network.dyn_peer[6]  lookupTimeSig:vector  ETV
vector 142015  Network.dyn_peer[7]  lookupHopsSig:vector  ETV
vector 142014  Network.dyn_peer[7]  lookupTimeSig:vector  ETV
vector 142017  Network.dyn_peer[8]  lookupHopsSig:vector  ETV
vector 142016  Network.dyn_peer[8]  lookupTimeSig:vector  ETV
vector 142019  Network.dyn_peer[9]  lookupHopsSig:vector  ETV
vector 142018  Network.dyn_peer[9]  lookupTimeSig:vector  ETV
vector 142021  Network.dyn_peer[10]  lookupHopsSig:vector  ETV
vector 142020  Network.dyn_peer[10]  lookupTimeSig:vector  ETV
vector 142023  Network.dyn_peer[11]  lookupHopsSig:vector  ETV
vector 142022  Network.dyn_peer[11]  lookupTimeSig:vector  ETV
vector 142025  Network.dyn_peer[12]  lookupHopsSig:vector  ETV
vector 142024  Network.dyn_peer[12]  lookupTimeSig:vector  ETV
vector 142027  Network.dyn_peer[13]  lookupHopsSig:vector  ETV
vector 142026  Network.dyn_peer[13]  lookupTimeSig:vector  ETV
vector 142029  Network.dyn_peer[14]  lookupHopsSig:vector  ETV
vector 142028  Network.dyn_peer[14]  lookupTimeSig:vector  ETV
vector 142031  Network.dyn_peer[15]  lookupHopsSig:vector  ETV
vector 142030  Network.dyn_peer[15]  lookupTimeSig:vector  ETV
vector 142033  Network.dyn_peer[16]  lookupHopsSig:vector  ETV
vector 142032  Network.dyn_peer[16]  lookupTimeSig:vector  ETV
vector 142035  Network.dyn_peer[17]  lookupHopsSig:vector  ETV
vector 142034  Network.dyn_peer[17]  lookupTimeSig:vector  ETV
vector 142037  Network.dyn_peer[18]  lookupHopsSig:vector  ETV
vector 142036  Network.dyn_peer[18]  lookupTimeSig:vector  ETV
vector 142039  Network.dyn_peer[19]  lookupHopsSig:vector  ETV
vector 142038  Network.dyn_peer[19]  lookupTimeSig:vector  ETV
vector 142041  Network.dyn_peer[20]  lookupHopsSig:vector  ETV
vector 142040  Network.dyn_peer[20]  lookupTimeSig:vector  ETV
vector 142043  Network.dyn_peer[21]  lookupHopsSig:vector  ETV
vector 142042  Network.dyn_peer[21]  lookupTimeSig:vector  ETV
vector 142045  Network.dyn_peer[22]  lookupHopsSig:vector  ETV
vector 142044  Network.dyn_peer[22]  lookupTimeSig:vector  ETV
vector 142047  Network.dyn_peer[23]  lookupHopsSig:vector  ETV
vector 142046  Network.dyn_peer[23]  lookupTimeSig:vector  ETV
vector 142049  Network.dyn_peer[24]  lookupHopsSig:vector  ETV
vector 142048  Network.dyn_peer[24]  lookupTimeSig:vector  ETV
vector 142051  Network.dyn_peer[25]  lookupHopsSig:vector  ETV
vector 142050  Network.dyn_peer[25]  lookupTimeSig:vector  ETV
vector 142053  Network.dyn_peer[26]  lookupHopsSig:vector  ETV
vector 142052  Network.dyn_peer[26]  lookupTimeSig:vector  ETV
vector 142055  Network.dyn_peer[27]  lookupHopsSig:vector  ETV
vector 142054  Network.dyn_peer[27]  lookupTimeSig:vector  ETV
vector 142057  Network.dyn_peer[28]  lookupHopsSig:vector  ETV
vector 142056  Network.dyn_peer[28]  lookupTimeSig:vector  ETV
vector 142059  Network.dyn_peer[29]  lookupHopsSig:vector  ETV
vector 142058  Network.dyn_peer[29]  lookupTimeSig:vector  ETV
vector 142061  Network.dyn_peer[30]  lookupHopsSig:vector  ETV
vector 142060  Network.dyn_peer[30]  lookupTimeSig:vector  ETV
vector 142063  Network.dyn_peer[31]  lookupHopsSig:vector  ETV
vector 142062  Network.dyn_peer[31]  lookupTimeSig:vector  ETV
vector 142065  Network.dyn_peer[32]  lookupHopsSig:vector  ETV
vector 142064  Network.dyn_peer[32]  lookupTimeSig:vector  ETV
vector 142067  Network.dyn_peer[33]  lookupHopsSig:vector  ETV
vector 142066  Network.dyn_peer[33]  lookupTimeSig:vector  ETV
vector 142069  Network.dyn_peer[34]  lookupHopsSig:vector  ETV
vector 142068  Network.dyn_peer[34]  lookupTimeSig:vector  ETV
vector 142071  Network.dyn_peer[35]  lookupHopsSig:vector  ETV
vector 142070  Network.dyn_peer[35]  lookupTimeSig:vector  ETV
vector 142073  Network.dyn_peer[36]  lookupHopsSig:vector  ETV
vector 142072  Network.dyn_peer[36]  lookupTimeSig:vector  ETV
vector 142075  Network.dyn_peer[37]  lookupHopsSig:vector  ETV
vector 142074  Network.dyn_peer[37]  lookupTimeSig:vector  ETV
vector 142077  Network.dyn_peer[38]  lookupHopsSig:vector  ETV
vector 142076  Network.dyn_peer[38]  lookupTimeSig:vector  ETV
vector 142079  Network.dyn_peer[39]  lookupHopsSig:vector  ETV
vector 142078  Network.dyn_peer[39]  lookupTimeSig:vector  ETV
vector 142081  Network.dyn_peer[40]  lookupHopsSig:vector  ETV
vector 142080  Network.dyn_peer[40]  lookupTimeSig:vector  ETV
vector 142083  Network.dyn_peer[41]  lookupHopsSig:vector  ETV
vector 142082  Network.dyn_peer[41]  lookupTimeSig:vector  ETV
vector 142085  Network.dyn_peer[42]  lookupHopsSig:vector  ETV
vector 142084  Network.dyn_peer[42]  lookupTimeSig:vector  ETV
vector 142087  Network.dyn_peer[43]  lookupHopsSig:vector  ETV
vector 142086  Network.dyn_peer[43]  lookupTimeSig:vector  ETV
vector 142089  Network.dyn_peer[44]  lookupHopsSig:vector  ETV
vector 142088  Network.dyn_peer[44]  lookupTimeSig:vector  ETV
vector 142091  Network.dyn_peer[45]  lookupHopsSig:vector  ETV
vector 142090  Network.dyn_peer[45]  lookupTimeSig:vector  ETV
vector 142093  Network.dyn_peer[46]  lookupHopsSig:vector  ETV
vector 142092  Network.dyn_peer[46]  lookupTimeSig:vector  ETV
vector 142095  Network.dyn_peer[47]  lookupHopsSig:vector  ETV
vector 142094  Network.dyn_peer[47]  lookupTimeSig:vector  ETV
vector 142097  Network.dyn_peer[48]  lookupHopsSig:vector  ETV
vector 142096  Network.dyn_peer[48]  lookupTimeSig:vector  ETV
vector 142099  Network.dyn_peer[49]  lookupHopsSig:vector  ETV
vector 142098  Network.dyn_peer[49]  lookupTimeSig:vector  ETV
vector 142101  Network.dyn_peer[50]  lookupHopsSig:vector  ETV
vector 142100  Network.dyn_peer[50]  lookupTimeSig:vector  ETV
vector 142103  Network.dyn_peer[51]  lookupHopsSig:vector  ETV
vector 142102  Network.dyn_peer[51]  lookupTimeSig:vector  ETV
vector 142105  Network.dyn_peer[52]  lookupHopsSig:vector  ETV
vector 142104  Network.dyn_peer[52]  lookupTimeSig:vector  ETV
vector 142107  Network.dyn_peer[53]  lookupHopsSig:vector  ETV
vector 142106  Network.dyn_peer[53]  lookupTimeSig:vector  ETV
vector 142109  Network.dyn_peer[54]  lookupHopsSig:vector  ETV
vector 142108  Network.dyn_peer[54]  lookupTimeSig:vector  ETV
vector 142111  Network.dyn_peer[55]  lookupHopsSig:vector  ETV
vector 142110  Network.dyn_peer[55]  lookupTimeSig:vector  ETV
vector 142113  Network.dyn_peer[56]  lookupHopsSig:vector  ETV
vector 142112  Network.dyn_peer[56]  lookupTimeSig:vector  ETV
vector 142115  Network.dyn_peer[57]  lookupHopsSig:vector  ETV
vector 142114  Network.dyn_peer[57]  lookupTimeSig:vector  ETV
vector 142117  Network.dyn_peer[58]  lookupHopsSig:vector  ETV
vector 142116  Network.dyn_peer[58]  lookupTimeSig:vector  ETV
vector 142119  Network.dyn_peer[59]  lookupHopsSig:vector  ETV
vector 142118  Network.dyn_peer[59]  lookupTimeSig:vector  ETV
vector 142121  Network.dyn_peer[60]  lookupHopsSig:vector  ETV
vector 142120  Network.dyn_peer[60]  lookupTimeSig:vector  ETV
vector 142123  Network.dyn_peer[61]  lookupHopsSig:vector  ETV
vector 142122  Network.dyn_peer[61]  lookupTimeSig:vector  ETV
vector 142125  Network.dyn_peer[62]  lookupHopsSig:vector  ETV
vector 142124  Network.dyn_peer[62]  lookupTimeSig:vector  ETV
vector 142127  Network.dyn_peer[63]  lookupHopsSig:vector  ETV
vector 142126  Network.dyn_peer[63]  lookupTimeSig:vector  ETV
vector 142129  Network.dyn_peer[64]  lookupHopsSig:vector  ETV
vector 142128  Network.dyn_peer[64]  lookupTimeSig:vector  ETV
vector 142131  Network.dyn_peer[65]  lookupHopsSig:vector  ETV
vector 142130  Network.dyn_peer[65]  lookupTimeSig:vector  ETV
vector 142133  Network.dyn_peer[66]  lookupHopsSig:vector  ETV
vector 142132  Network.dyn_peer[66]  lookupTimeSig:vector  ETV
vector 142135  Network.dyn_peer[67]  lookupHopsSig:vector  ETV
vector 142134  Network.dyn_peer[67]  lookupTimeSig:vector  ETV
vector 142137  Network.dyn_peer[68]  lookupHopsSig:vector  ETV
vector 142136  Network.dyn_peer[68]  lookupTimeSig:vector  ETV
vector 142139  Network.dyn_peer[69]  lookupHopsSig:vector  ETV
vector 142138  Network.dyn_peer[69]  lookupTimeSig:vector  ETV
vector 142141  Network.dyn_peer[70]  lookupHopsSig:vector  ETV
vector 142140  Network.dyn_peer[70]  lookupTimeSig:vector  ETV
vector 142143  Network.dyn_peer[71]  lookupHopsSig:vector  ETV
vector 142142  Network.dyn_peer[71]  lookupTimeSig:vector  ETV
vector 142145  Network.dyn_peer[72]  lookupHopsSig:vector  ETV
vector 142144  Network.dyn_peer[72]  lookupTimeSig:vector  ETV
vector 142147  Network.dyn_peer[73]  lookupHopsSig:vector  ETV
vector 142146  Network.dyn_peer[73]  lookupTimeSig:vector  ETV
vector 142149  Network.dyn_peer[74]  lookupHopsSig:vector  ETV
vector 142148  Network.dyn_peer[74]  lookupTimeSig:vector  ETV
vector 142151  Network.dyn_peer[75]  lookupHopsSig:vector  ETV
vector 142150  Network.dyn_peer[75]  lookupTimeSig:vector  ETV
vector 142153  Network.dyn_peer[76]  lookupHopsSig:vector  ETV
vector 142152  Network.dyn_peer[76]  lookupTimeSig:vector  ETV
vector 142155  Network.dyn_peer[77]  lookupHopsSig:vector  ETV
vector 142154  Network.dyn_peer[77]  lookupTimeSig:vector  ETV
vector 142157  Network.dyn_peer[78]  lookupHopsSig:vector  ETV
vector 142156  Network.dyn_peer[78]  lookupTimeSig:vector  ETV
vector 142159  Network.dyn_peer[79]  lookupHopsSig:vector  ETV
vector 142158  Network.dyn_peer[79]  lookupTimeSig:vector  ETV
vector 142161  Network.dyn_peer[80]  lookupHopsSig:vector  ETV
vector 142160  Network.dyn_peer[80]  lookupTimeSig:vector  ETV
vector 142163  Network.dyn_peer[81]  lookupHopsSig:vector  ETV
vector 142162  Network.dyn_peer[81]  lookupTimeSig:vector  ETV
vector 142165  Network.dyn_peer[82]  lookupHopsSig:vector  ETV
vector 142164  Network.dyn_peer[82]  lookupTimeSig:vector  ETV
vector 142167  Network.dyn_peer[83]  lookupHopsSig:vector  ETV
vector 142166  Network.dyn_peer[83]  lookupTimeSig:vector  ETV
vector 142169  Network.dyn_peer[84]  lookupHopsSig:vector  ETV
vector 142168  Network.dyn_peer[84]  lookupTimeSig:vector  ETV
vector 142171  Network.dyn_peer[85]  lookupHopsSig:vector  ETV
vector 142170  Network.dyn_peer[85]  lookupTimeSig:vector  ETV
vector 142173  Network.dyn_peer[86]  lookupHopsSig:vector  ETV
vector 142172  Network.dyn_peer[86]  lookupTimeSig:vector  ETV
vector 142175  Network.dyn_peer[87]  lookupHopsSig:vector  ETV
vector 142174  Network.dyn_peer[87]  lookupTimeSig:vector  ETV
vector 142177  Network.dyn_peer[88]  lookupHopsSig:vector  ETV
vector 142176  Network.dyn_peer[88]  lookupTimeSig:vector  ETV
vector 142179  Network.dyn_peer[89]  lookupHopsSig:vector  ETV
vector 142178  Network.dyn_peer[89]  lookupTimeSig:vector  ETV
vector 142181  Network.dyn_peer[90]  lookupHopsSig:vector  ETV
vector 142180  Network.dyn_peer[90]  lookupTimeSig:vector  ETV
vector 142183  Network.dyn_peer[91]  lookupHopsSig:vector  ETV
vector 142182  Network.dyn_peer[91]  lookupTimeSig:vector  ETV
vector 142185  Network.dyn_peer[92]  lookupHopsSig:vector  ETV
vector 142184  Network.dyn_peer[92]  lookupTimeSig:vector  ETV
vector 142187  Network.dyn_peer[93]  lookupHopsSig:vector  ETV
vector 142186  Network.dyn_peer[93]  lookupTimeSig:vector  ETV
vector 142189  Network.dyn_peer[94]  lookupHopsSig:vector  ETV
vector 142188  Network.dyn_peer[94]  lookupTimeSig:vector  ETV
vector 142191  Network.dyn_peer[95]  lookupHopsSig:vector  ETV
vector 142190  Network.dyn_peer[95]  lookupTimeSig:vector  ETV
vector 142193  Network.dyn_peer[96]  lookupHopsSig:vector  ETV
vector 142192  Network.dyn_peer[96]  lookupTimeSig:vector  ETV
vector 142195  Network.dyn_peer[97]  lookupHopsSig:vector  ETV
vector 142194  Network.dyn_peer[97]  lookupTimeSig:vector  ETV
vector 142197  Network.dyn_peer[98]  lookupHopsSig:vector  ETV
vector 142196  Network.dyn_peer[98]  lookupTimeSig:vector  ETV
vector 142199  Network.dyn_peer[99]  lookupHopsSig:vector  ETV
vector 142198  Network.dyn_peer[99]  lookupTimeSig:vector  ETV
vector 142201  Network.dyn_peer[100]  lookupHopsSig:vector  ETV
vector 142200  Network.dyn_peer[100]  lookupTimeSig:vector  ETV
vector 142203  Network.dyn_peer[101]  lookupHopsSig:vector  ETV
vector 142202  Network.dyn_peer[101]  lookupTimeSig:vector  ETV
vector 142205  Network.dyn_peer[102]  lookupHopsSig:vector  ETV
vector 142204  Network.dyn_peer[102]  lookupTimeSig:vector  ETV
vector 142207  Network.dyn_peer[103]  lookupHopsSig:vector  ETV
vector 142206  Network.dyn_peer[103]  lookupTimeSig:vector  ETV
vector 142209  Network.dyn_peer[104]  lookupHopsSig:vector  ETV
vector 142208  Network.dyn_peer[104]  lookupTimeSig:vector  ETV
vector 142211  Network.dyn_peer[105]  lookupHopsSig:vector  ETV
vector 142210  Network.dyn_peer[105]  lookupTimeSig:vector  ETV
vector 142213  Network.dyn_peer[106]  lookupHopsSig:vector  ETV
vector 142212  Network.dyn_peer[106]  lookupTimeSig:vector  ETV
vector 142215  Network.dyn_peer[107]  lookupHopsSig:vector  ETV
vector 142214  Network.dyn_peer[107]  lookupTimeSig:vector  ETV
vector 142217  Network.dyn_peer[108]  lookupHopsSig:vector  ETV
vector 142216  Network.dyn_peer[108]  lookupTimeSig:vector  ETV
vector 142219  Network.dyn_peer[109]  lookupHopsSig:vector  ETV
vector 142218  Network.dyn_peer[109]  lookupTimeSig:vector  ETV
vector 142221  Network.dyn_peer[110]  lookupHopsSig:vector  ETV
vector 142220  Network.dyn_peer[110]  lookupTimeSig:vector  ETV
vector 142223  Network.dyn_peer[111]  lookupHopsSig:vector  ETV
vector 142222  Network.dyn_peer[111]  lookupTimeSig:vector  ETV
vector 142225  Network.dyn_peer[112]  lookupHopsSig:vector  ETV
vector 142224  Network.dyn_peer[112]  lookupTimeSig:vector  ETV
vector 142227  Network.dyn_peer[113]  lookupHopsSig:vector  ETV
vector 142226  Network.dyn_peer[113]  lookupTimeSig:vector  ETV
vector 142229  Network.dyn_peer[114]  lookupHopsSig:vector  ETV
vector 142228  Network.dyn_peer[114]  lookupTimeSig:vector  ETV
vector 142231  Network.dyn_peer[115]  lookupHopsSig:vector  ETV
vector 142230  Network.dyn_peer[115]  lookupTimeSig:vector  ETV
vector 142233  Network.dyn_peer[116]  lookupHopsSig:vector  ETV
vector 142232  Network.dyn_peer[116]  lookupTimeSig:vector  ETV
vector 142235  Network.dyn_peer[117]  lookupHopsSig:vector  ETV
vector 142234  Network.dyn_peer[117]  lookupTimeSig:vector  ETV
vector 142237  Network.dyn_peer[118]  lookupHopsSig:vector  ETV
vector 142236  Network.dyn_peer[118]  lookupTimeSig:vector  ETV
vector 142239  Network.dyn_peer[119]  lookupHopsSig:vector  ETV
vector 142238  Network.dyn_peer[119]  lookupTimeSig:vector  ETV
vector 142241  Network.dyn_peer[120]  lookupHopsSig:vector  ETV
vector 142240  Network.dyn_peer[120]  lookupTimeSig:vector  ETV
vector 142243  Network.dyn_peer[121]  lookupHopsSig:vector  ETV
vector 142242  Network.dyn_peer[121]  lookupTimeSig:vector  ETV
vector 142245  Network.dyn_peer[122]  lookupHopsSig:vector  ETV
vector 142244  Network.dyn_peer[122]  lookupTimeSig:vector  ETV
vector 142247  Network.dyn_peer[123]  lookupHopsSig:vector  ETV
vector 142246  Network.dyn_peer[123]  lookupTimeSig:vector  ETV
vector 142249  Network.dyn_peer[124]  lookupHopsSig:vector  ETV
vector 142248  Network.dyn_peer[124]  lookupTimeSig:vector  ETV
vector 142251  Network.dyn_peer[125]  lookupHopsSig:vector  ETV
vector 142250  Network.dyn_peer[125]  lookupTimeSig:vector  ETV
vector 142253  Network.dyn_peer[126]  lookupHopsSig:vector  ETV
vector 142252  Network.dyn_peer[126]  lookupTimeSig:vector  ETV
vector 142255  Network.dyn_peer[127]  lookupHopsSig:vector  ETV
vector 142254  Network.dyn_peer[127]  lookupTimeSig:vector  ETV
vector 142257  Network.dyn_peer[128]  lookupHopsSig:vector  ETV
vector 142256  Network.dyn_peer[128]  lookupTimeSig:vector  ETV
vector 142259  Network.dyn_peer[129]  lookupHopsSig:vector  ETV
vector 142258  Network.dyn_peer[129]  lookupTimeSig:vector  ETV
vector 142261  Network.dyn_peer[130]  lookupHopsSig:vector  ETV
vector 142260  Network.dyn_peer[130]  lookupTimeSig:vector  ETV
vector 142263  Network.dyn_peer[131]  lookupHopsSig:vector  ETV
vector 142262  Network.dyn_peer[131]  lookupTimeSig:vector  ETV
vector 142265  Network.dyn_peer[132]  lookupHopsSig:vector  ETV
vector 142264  Network.dyn_peer[132]  lookupTimeSig:vector  ETV
vector 142267  Network.dyn_peer[133]  lookupHopsSig:vector  ETV
vector 142266  Network.dyn_peer[133]  lookupTimeSig:vector  ETV
vector 142269  Network.dyn_peer[134]  lookupHopsSig:vector  ETV
vector 142268  Network.dyn_peer[134]  lookupTimeSig:vector  ETV
vector 142271  Network.dyn_peer[135]  lookupHopsSig:vector  ETV
vector 142270  Network.dyn_peer[135]  lookupTimeSig:vector  ETV
vector 142273  Network.dyn_peer[136]  lookupHopsSig:vector  ETV
vector 142272  Network.dyn_peer[136]  lookupTimeSig:vector  ETV
vector 142275  Network.dyn_peer[137]  lookupHopsSig:vector  ETV
vector 142274  Network.dyn_peer[137]  lookupTimeSig:vector  ETV
vector 142277  Network.dyn_peer[138]  lookupHopsSig:vector  ETV
vector 142276  Network.dyn_peer[138]  lookupTimeSig:vector  ETV
vector 142279  Network.dyn_peer[139]  lookupHopsSig:vector  ETV
vector 142278  Network.dyn_peer[139]  lookupTimeSig:vector  ETV
vector 142281  Network.dyn_peer[140]  lookupHopsSig:vector  ETV
vector 142280  Network.dyn_peer[140]  lookupTimeSig:vector  ETV
vector 142283  Network.dyn_peer[141]  lookupHopsSig:vector  ETV
vector 142282  Network.dyn_peer[141]  lookupTimeSig:vector  ETV
vector 142285  Network.dyn_peer[142]  lookupHopsSig:vector  ETV
vector 142284  Network.dyn_peer[142]  lookupTimeSig:vector  ETV
vector 142287  Network.dyn_peer[143]  lookupHopsSig:vector  ETV
vector 142286  Network.dyn_peer[143]  lookupTimeSig:vector  ETV
vector 142289  Network.dyn_peer[144]  lookupHopsSig:vector  ETV
vector 142288  Network.dyn_peer[144]  lookupTimeSig:vector  ETV
vector 142291  Network.dyn_peer[145]  lookupHopsSig:vector  ETV
vector 142290  Network.dyn_peer[145]  lookupTimeSig:vector  ETV
vector 142293  Network.dyn_peer[146]  lookupHopsSig:vector  ETV
vector 142292  Network.dyn_peer[146]  lookupTimeSig:vector  ETV
vector 142295  Network.dyn_peer[147]  lookupHopsSig:vector  ETV
vector 142294  Network.dyn_peer[147]  lookupTimeSig:vector  ETV
vector 142297  Network.dyn_peer[148]  lookupHopsSig:vector  ETV
vector 142296  Network.dyn_peer[148]  lookupTimeSig:vector  ETV
vector 142299  Network.dyn_peer[149]  lookupHopsSig:vector  ETV
vector 142298  Network.dyn_peer[149]  lookupTimeSig:vector  ETV
vector 142301  Network.dyn_peer[150]  lookupHopsSig:vector  ETV
vector 142300  Network.dyn_peer[150]  lookupTimeSig:vector  ETV
vector 142303  Network.dyn_peer[151]  lookupHopsSig:vector  ETV
vector 142302  Network.dyn_peer[151]  lookupTimeSig:vector  ETV
vector 142305  Network.dyn_peer[152]  lookupHopsSig:vector  ETV
vector 142304  Network.dyn_peer[152]  lookupTimeSig:vector  ETV
vector 142307  Network.dyn_peer[153]  lookupHopsSig:vector  ETV
vector 142306  Network.dyn_peer[153]  lookupTimeSig:vector  ETV
vector 142309  Network.dyn_peer[154]  lookupHopsSig:vector  ETV
vector 142308  Network.dyn_peer[154]  lookupTimeSig:vector  ETV
vector 142311  Network.dyn_peer[155]  lookupHopsSig:vector  ETV
vector 142310  Network.dyn_peer[155]  lookupTimeSig:vector  ETV
vector 142313  Network.dyn_peer[156]  lookupHopsSig:vector  ETV
vector 142312  Network.dyn_peer[156]  lookupTimeSig:vector  ETV
vector 142315  Network.dyn_peer[157]  lookupHopsSig:vector  ETV
vector 142314  Network.dyn_peer[157]  lookupTimeSig:vector  ETV
vector 142317  Network.dyn_peer[158]  lookupHopsSig:vector  ETV
vector 142316  Network.dyn_peer[158]  lookupTimeSig:vector  ETV
vector 142319  Network.dyn_peer[159]  lookupHopsSig:vector  ETV
vector 142318  Network.dyn_peer[159]  lookupTimeSig:vector  ETV
vector 142321  Network.dyn_peer[160]  lookupHopsSig:vector  ETV
vector 142320  Network.dyn_peer[160]  lookupTimeSig:vector  ETV
vector 142323  Network.dyn_peer[161]  lookupHopsSig:vector  ETV
vector 142322  Network.dyn_peer[161]  lookupTimeSig:vector  ETV
vector 142325  Network.dyn_peer[162]  lookupHopsSig:vector  ETV
vector 142324  Network.dyn_peer[162]  lookupTimeSig:vector  ETV
vector 142327  Network.dyn_peer[163]  lookupHopsSig:vector  ETV
vector 142326  Network.dyn_peer[163]  lookupTimeSig:vector  ETV
vector 142329  Network.dyn_peer[164]  lookupHopsSig:vector  ETV
vector 142328  Network.dyn_peer[164]  lookupTimeSig:vector  ETV
vector 142331  Network.dyn_peer[165]  lookupHopsSig:vector  ETV
vector 142330  Network.dyn_peer[165]  lookupTimeSig:vector  ETV
vector 142333  Network.dyn_peer[166]  lookupHopsSig:vector  ETV
vector 142332  Network.dyn_peer[166]  lookupTimeSig:vector  ETV
vector 142335  Network.dyn_peer[167]  lookupHopsSig:vector  ETV
vector 142334  Network.dyn_peer[167]  lookupTimeSig:vector  ETV
vector 142337  Network.dyn_peer[168]  lookupHopsSig:vector  ETV
vector 142336  Network.dyn_peer[168]  lookupTimeSig:vector  ETV
vector 142339  Network.dyn_peer[169]  lookupHopsSig:vector  ETV
vector 142338  Network.dyn_peer[169]  lookupTimeSig:vector  ETV
vector 142341  Network.dyn_peer[170]  lookupHopsSig:vector  ETV
vector 142340  Network.dyn_peer[170]  lookupTimeSig:vector  ETV
vector 142343  Network.dyn_peer[171]  lookupHopsSig:vector  ETV
vector 142342  Network.dyn_peer[171]  lookupTimeSig:vector  ETV
vector 142345  Network.dyn_peer[172]  lookupHopsSig:vector  ETV
vector 142344  Network.dyn_peer[172]  lookupTimeSig:vector  ETV
vector 142347  Network.dyn_peer[173]  lookupHopsSig:vector  ETV
vector 142346  Network.dyn_peer[173]  lookupTimeSig:vector  ETV
vector 142349  Network.dyn_peer[174]  lookupHopsSig:vector  ETV
vector 142348  Network.dyn_peer[174]  lookupTimeSig:vector  ETV
vector 142351  Network.dyn_peer[175]  lookupHopsSig:vector  ETV
vector 142350  Network.dyn_peer[175]  lookupTimeSig:vector  ETV
vector 142353  Network.dyn_peer[176]  lookupHopsSig:vector  ETV
vector 142352  Network.dyn_peer[176]  lookupTimeSig:vector  ETV
vector 142355  Network.dyn_peer[177]  lookupHopsSig:vector  ETV
vector 142354  Network.dyn_peer[177]  lookupTimeSig:vector  ETV
vector 142357  Network.dyn_peer[178]  lookupHopsSig:vector  ETV
vector 142356  Network.dyn_peer[178]  lookupTimeSig:vector  ETV
vector 142359  Network.dyn_peer[179]  lookupHopsSig:vector  ETV
vector 142358  Network.dyn_peer[179]  lookupTimeSig:vector  ETV
vector 142361  Network.dyn_peer[180]  lookupHopsSig:vector  ETV
vector 142360  Network.dyn_peer[180]  lookupTimeSig:vector  ETV
vector 142363  Network.dyn_peer[181]  lookupHopsSig:vector  ETV
vector 142362  Network.dyn_peer[181]  lookupTimeSig:vector  ETV
vector 142365  Network.dyn_peer[182]  lookupHopsSig:vector  ETV
vector 142364  Network.dyn_peer[182]  lookupTimeSig:vector  ETV
vector 142367  Network.dyn_peer[183]  lookupHopsSig:vector  ETV
vector 142366  Network.dyn_peer[183]  lookupTimeSig:vector  ETV
vector 142369  Network.dyn_peer[184]  lookupHopsSig:vector  ETV
vector 142368  Network.dyn_peer[184]  lookupTimeSig:vector  ETV
vector 142371  Network.dyn_peer[185]  lookupHopsSig:vector  ETV
vector 142370  Network.dyn_peer[185]  lookupTimeSig:vector  ETV
vector 142373  Network.dyn_peer[186]  lookupHopsSig:vector  ETV
vector 142372  Network.dyn_peer[186]  lookupTimeSig:vector  ETV
vector 142375  Network.dyn_peer[187]  lookupHopsSig:vector  ETV
vector 142374  Network.dyn_peer[187]  lookupTimeSig:vector  ETV
vector 142377  Network.dyn_peer[188]  lookupHopsSig:vector  ETV
vector 142376  Network.dyn_peer[188]  lookupTimeSig:vector  ETV
vector 142379  Network.dyn_peer[189]  lookupHopsSig:vector  ETV
vector 142378  Network.dyn_peer[189]  lookupTimeSig:vector  ETV
vector 142381  Network.dyn_peer[190]  lookupHopsSig:vector  ETV
vector 142380  Network.dyn_peer[190]  lookupTimeSig:vector  ETV
vector 142383  Network.dyn_peer[191]  lookupHopsSig:vector  ETV
vector 142382  Network.dyn_peer[191]  lookupTimeSig:vector  ETV
vector 142385  Network.dyn_peer[192]  lookupHopsSig:vector  ETV
vector 142384  Network.dyn_peer[192]  lookupTimeSig:vector  ETV
vector 142387  Network.dyn_peer[193]  lookupHopsSig:vector  ETV
vector 142386  Network.dyn_peer[193]  lookupTimeSig:vector  ETV
vector 142389  Network.dyn_peer[194]  lookupHopsSig:vector  ETV
vector 142388  Network.dyn_peer[194]  lookupTimeSig:vector  ETV
vector 142391  Network.dyn_peer[195]  lookupHopsSig:vector  ETV
vector 142390  Network.dyn_peer[195]  lookupTimeSig:vector  ETV
vector 142393  Network.dyn_peer[196]  lookupHopsSig:vector  ETV
vector 142392  Network.dyn_peer[196]  lookupTimeSig:vector  ETV
vector 142395  Network.dyn_peer[197]  lookupHopsSig:vector  ETV
vector 142394  Network.dyn_peer[197]  lookupTimeSig:vector  ETV
vector 142397  Network.dyn_peer[198]  lookupHopsSig:vector  ETV
vector 142396  Network.dyn_peer[198]  lookupTimeSig:vector  ETV
vector 142399  Network.dyn_peer[199]  lookupHopsSig:vector  ETV
vector 142398  Network.dyn_peer[199]  lookupTimeSig:vector  ETV
vector 142401  Network.dyn_peer[200]  lookupHopsSig:vector  ETV
vector 142400  Network.dyn_peer[200]  lookupTimeSig:vector  ETV
vector 142403  Network.dyn_peer[201]  lookupHopsSig:vector  ETV
vector 142402  Network.dyn_peer[201]  lookupTimeSig:vector  ETV
vector 142405  Network.dyn_peer[202]  lookupHopsSig:vector  ETV
vector 142404  Network.dyn_peer[202]  lookupTimeSig:vector  ETV
vector 142407  Network.dyn_peer[203]  lookupHopsSig:vector  ETV
vector 142406  Network.dyn_peer[203]  lookupTimeSig:vector  ETV
vector 142409  Network.dyn_peer[204]  lookupHopsSig:vector  ETV
vector 142408  Network.dyn_peer[204]  lookupTimeSig:vector  ETV
vector 142411  Network.dyn_peer[205]  lookupHopsSig:vector  ETV
vector 142410  Network.dyn_peer[205]  lookupTimeSig:vector  ETV
vector 142413  Network.dyn_peer[206]  lookupHopsSig:vector  ETV
vector 142412  Network.dyn_peer[206]  lookupTimeSig:vector  ETV
vector 142415  Network.dyn_peer[207]  lookupHopsSig:vector  ETV
vector 142414  Network.dyn_peer[207]  lookupTimeSig:vector  ETV
vector 142417  Network.dyn_peer[208]  lookupHopsSig:vector  ETV
vector 142416  Network.dyn_peer[208]  lookupTimeSig:vector  ETV
vector 142419  Network.dyn_peer[209]  lookupHopsSig:vector  ETV
vector 142418  Network.dyn_peer[209]  lookupTimeSig:vector  ETV
vector 142421  Network.dyn_peer[210]  lookupHopsSig:vector  ETV
vector 142420  Network.dyn_peer[210]  lookupTimeSig:vector  ETV
vector 142423  Network.dyn_peer[211]  lookupHopsSig:vector  ETV
vector 142422  Network.dyn_peer[211]  lookupTimeSig:vector  ETV
vector 142425  Network.dyn_peer[212]  lookupHopsSig:vector  ETV
vector 142424  Network.dyn_peer[212]  lookupTimeSig:vector  ETV
vector 142427  Network.dyn_peer[213]  lookupHopsSig:vector  ETV
vector 142426  Network.dyn_peer[213]  lookupTimeSig:vector  ETV
vector 142429  Network.dyn_peer[214]  lookupHopsSig:vector  ETV
vector 142428  Network.dyn_peer[214]  lookupTimeSig:vector  ETV
vector 142431  Network.dyn_peer[215]  lookupHopsSig:vector  ETV
vector 142430  Network.dyn_peer[215]  lookupTimeSig:vector  ETV
vector 142433  Network.dyn_peer[216]  lookupHopsSig:vector  ETV
vector 142432  Network.dyn_peer[216]  lookupTimeSig:vector  ETV
vector 142435  Network.dyn_peer[217]  lookupHopsSig:vector  ETV
vector 142434  Network.dyn_peer[217]  lookupTimeSig:vector  ETV
vector 142437  Network.dyn_peer[218]  lookupHopsSig:vector  ETV
vector 142436  Network.dyn_peer[218]  lookupTimeSig:vector  ETV
vector 142439  Network.dyn_peer[219]  lookupHopsSig:vector  ETV
vector 142438  Network.dyn_peer[219]  lookupTimeSig:vector  ETV
vector 142441  Network.dyn_peer[220]  lookupHopsSig:vector  ETV
vector 142440  Network.dyn_peer[220]  lookupTimeSig:vector  ETV
vector 142443  Network.dyn_peer[221]  lookupHopsSig:vector  ETV
vector 142442  Network.dyn_peer[221]  lookupTimeSig:vector  ETV
vector 142445  Network.dyn_peer[222]  lookupHopsSig:vector  ETV
vector 142444  Network.dyn_peer[222]  lookupTimeSig:vector  ETV
vector 142447  Network.dyn_peer[223]  lookupHopsSig:vector  ETV
vector 142446  Network.dyn_peer[223]  lookupTimeSig:vector  ETV
vector 142449  Network.dyn_peer[224]  lookupHopsSig:vector  ETV
vector 142448  Network.dyn_peer[224]  lookupTimeSig:vector  ETV
vector 142451  Network.dyn_peer[225]  lookupHopsSig:vector  ETV
vector 142450  Network.dyn_peer[225]  lookupTimeSig:vector  ETV
vector 142453  Network.dyn_peer[226]  lookupHopsSig:vector  ETV
vector 142452  Network.dyn_peer[226]  lookupTimeSig:vector  ETV
vector 142455  Network.dyn_peer[227]  lookupHopsSig:vector  ETV
vector 142454  Network.dyn_peer[227]  lookupTimeSig:vector  ETV
vector 142457  Network.dyn_peer[228]  lookupHopsSig:vector  ETV
vector 142456  Network.dyn_peer[228]  lookupTimeSig:vector  ETV
vector 142459  Network.dyn_peer[229]  lookupHopsSig:vector  ETV
vector 142458  Network.dyn_peer[229]  lookupTimeSig:vector  ETV
vector 142461  Network.dyn_peer[230]  lookupHopsSig:vector  ETV
vector 142460  Network.dyn_peer[230]  lookupTimeSig:vector  ETV
vector 142463  Network.dyn_peer[231]  lookupHopsSig:vector  ETV
vector 142462  Network.dyn_peer[231]  lookupTimeSig:vector  ETV
vector 142465  Network.dyn_peer[232]  lookupHopsSig:vector  ETV