file 815262 1369168906                                          
version 2
run Stability-206-20130521-22:41:42-23591
attr configname Stability
attr datetime 20130521-22:41:42
attr experiment Stability
attr inifile omnetpp.ini
attr iterationvars $0=0.125
attr iterationvars2 "$0=0.125, $repetition=26"
attr measurement $0=0.125
attr network Network
attr processid 23591
attr repetition 26
attr replication #26
attr resultdir results
attr runnumber 206
attr seedset 206

vector 412001  Network.dyn_peer[0]  lookupHopsSig:vector  ETV
vector 412000  Network.dyn_peer[0]  lookupTimeSig:vector  ETV
vector 412003  Network.dyn_peer[1]  lookupHopsSig:vector  ETV
vector 412002  Network.dyn_peer[1]  lookupTimeSig:vector  ETV
vector 412007  Network.dyn_peer[3]  lookupHopsSig:vector  ETV
vector 412006  Network.dyn_peer[3]  lookupTimeSig:vector  ETV
vector 412013  Network.dyn_peer[6]  lookupHopsSig:vector  ETV
vector 412012  Network.dyn_peer[6]  lookupTimeSig:vector  ETV
vector 412009  Network.dyn_peer[4]  lookupHopsSig:vector  ETV
vector 412008  Network.dyn_peer[4]  lookupTimeSig:vector  ETV
vector 412005  Network.dyn_peer[2]  lookupHopsSig:vector  ETV
vector 412004  Network.dyn_peer[2]  lookupTimeSig:vector  ETV
vector 412011  Network.dyn_peer[5]  lookupHopsSig:vector  ETV
vector 412010  Network.dyn_peer[5]  lookupTimeSig:vector  ETV
vector 412017  Network.dyn_peer[8]  lookupHopsSig:vector  ETV
vector 412016  Network.dyn_peer[8]  lookupTimeSig:vector  ETV
vector 412019  Network.dyn_peer[9]  lookupHopsSig:vector  ETV
vector 412018  Network.dyn_peer[9]  lookupTimeSig:vector  ETV
vector 412015  Network.dyn_peer[7]  lookupHopsSig:vector  ETV
vector 412014  Network.dyn_peer[7]  lookupTimeSig:vector  ETV
vector 412027  Network.dyn_peer[13]  lookupHopsSig:vector  ETV
vector 412026  Network.dyn_peer[13]  lookupTimeSig:vector  ETV
vector 412025  Network.dyn_peer[12]  lookupHopsSig:vector  ETV
vector 412024  Network.dyn_peer[12]  lookupTimeSig:vector  ETV
vector 412023  Network.dyn_peer[11]  lookupHopsSig:vector  ETV
vector 412022  Network.dyn_peer[11]  lookupTimeSig:vector  ETV
vector 412021  Network.dyn_peer[10]  lookupHopsSig:vector  ETV
vector 412020  Network.dyn_peer[10]  lookupTimeSig:vector  ETV
vector 412029  Network.dyn_peer[14]  lookupHopsSig:vector  ETV
vector 412028  Network.dyn_peer[14]  lookupTimeSig:vector  ETV
vector 412031  Network.dyn_peer[15]  lookupHopsSig:vector  ETV
vector 412030  Network.dyn_peer[15]  lookupTimeSig:vector  ETV
vector 412033  Network.dyn_peer[16]  lookupHopsSig:vector  ETV
vector 412032  Network.dyn_peer[16]  lookupTimeSig:vector  ETV
vector 412035  Network.dyn_peer[17]  lookupHopsSig:vector  ETV
vector 412034  Network.dyn_peer[17]  lookupTimeSig:vector  ETV
vector 412045  Network.dyn_peer[22]  lookupHopsSig:vector  ETV
vector 412044  Network.dyn_peer[22]  lookupTimeSig:vector  ETV
vector 412039  Network.dyn_peer[19]  lookupHopsSig:vector  ETV
vector 412038  Network.dyn_peer[19]  lookupTimeSig:vector  ETV
vector 412043  Network.dyn_peer[21]  lookupHopsSig:vector  ETV
vector 412042  Network.dyn_peer[21]  lookupTimeSig:vector  ETV
vector 412047  Network.dyn_peer[23]  lookupHopsSig:vector  ETV
vector 412046  Network.dyn_peer[23]  lookupTimeSig:vector  ETV
vector 412041  Network.dyn_peer[20]  lookupHopsSig:vector  ETV
vector 412040  Network.dyn_peer[20]  lookupTimeSig:vector  ETV
vector 412037  Network.dyn_peer[18]  lookupHopsSig:vector  ETV
vector 412036  Network.dyn_peer[18]  lookupTimeSig:vector  ETV
vector 412051  Network.dyn_peer[25]  lookupHopsSig:vector  ETV
vector 412050  Network.dyn_peer[25]  lookupTimeSig:vector  ETV
vector 412049  Network.dyn_peer[24]  lookupHopsSig:vector  ETV
vector 412048  Network.dyn_peer[24]  lookupTimeSig:vector  ETV
vector 412053  Network.dyn_peer[26]  lookupHopsSig:vector  ETV
vector 412052  Network.dyn_peer[26]  lookupTimeSig:vector  ETV
vector 412057  Network.dyn_peer[28]  lookupHopsSig:vector  ETV
vector 412056  Network.dyn_peer[28]  lookupTimeSig:vector  ETV
vector 412059  Network.dyn_peer[29]  lookupHopsSig:vector  ETV
vector 412058  Network.dyn_peer[29]  lookupTimeSig:vector  ETV
vector 412061  Network.dyn_peer[30]  lookupHopsSig:vector  ETV
vector 412060  Network.dyn_peer[30]  lookupTimeSig:vector  ETV
vector 412055  Network.dyn_peer[27]  lookupHopsSig:vector  ETV
vector 412054  Network.dyn_peer[27]  lookupTimeSig:vector  ETV
vector 412067  Network.dyn_peer[33]  lookupHopsSig:vector  ETV
vector 412066  Network.dyn_peer[33]  lookupTimeSig:vector  ETV
vector 412065  Network.dyn_peer[32]  lookupHopsSig:vector  ETV
vector 412064  Network.dyn_peer[32]  lookupTimeSig:vector  ETV
vector 412073  Network.dyn_peer[36]  lookupHopsSig:vector  ETV
vector 412072  Network.dyn_peer[36]  lookupTimeSig:vector  ETV
vector 412069  Network.dyn_peer[34]  lookupHopsSig:vector  ETV
vector 412068  Network.dyn_peer[34]  lookupTimeSig:vector  ETV
vector 412063  Network.dyn_peer[31]  lookupHopsSig:vector  ETV
vector 412062  Network.dyn_peer[31]  lookupTimeSig:vector  ETV
vector 412075  Network.dyn_peer[37]  lookupHopsSig:vector  ETV
vector 412074  Network.dyn_peer[37]  lookupTimeSig:vector  ETV
vector 412071  Network.dyn_peer[35]  lookupHopsSig:vector  ETV
vector 412070  Network.dyn_peer[35]  lookupTimeSig:vector  ETV
vector 412077  Network.dyn_peer[38]  lookupHopsSig:vector  ETV
vector 412076  Network.dyn_peer[38]  lookupTimeSig:vector  ETV
vector 412081  Network.dyn_peer[40]  lookupHopsSig:vector  ETV
vector 412080  Network.dyn_peer[40]  lookupTimeSig:vector  ETV
vector 412079  Network.dyn_peer[39]  lookupHopsSig:vector  ETV
vector 412078  Network.dyn_peer[39]  lookupTimeSig:vector  ETV
vector 412085  Network.dyn_peer[42]  lookupHopsSig:vector  ETV
vector 412084  Network.dyn_peer[42]  lookupTimeSig:vector  ETV
vector 412087  Network.dyn_peer[43]  lookupHopsSig:vector  ETV
vector 412086  Network.dyn_peer[43]  lookupTimeSig:vector  ETV
vector 412083  Network.dyn_peer[41]  lookupHopsSig:vector  ETV
vector 412082  Network.dyn_peer[41]  lookupTimeSig:vector  ETV
vector 412097  Network.dyn_peer[48]  lookupHopsSig:vector  ETV
vector 412096  Network.dyn_peer[48]  lookupTimeSig:vector  ETV
vector 412091  Network.dyn_peer[45]  lookupHopsSig:vector  ETV
vector 412090  Network.dyn_peer[45]  lookupTimeSig:vector  ETV
vector 412093  Network.dyn_peer[46]  lookupHopsSig:vector  ETV
vector 412092  Network.dyn_peer[46]  lookupTimeSig:vector  ETV
vector 412089  Network.dyn_peer[44]  lookupHopsSig:vector  ETV
vector 412088  Network.dyn_peer[44]  lookupTimeSig:vector  ETV
vector 412099  Network.dyn_peer[49]  lookupHopsSig:vector  ETV
vector 412098  Network.dyn_peer[49]  lookupTimeSig:vector  ETV
vector 412101  Network.dyn_peer[50]  lookupHopsSig:vector  ETV
vector 412100  Network.dyn_peer[50]  lookupTimeSig:vector  ETV
vector 412095  Network.dyn_peer[47]  lookupHopsSig:vector  ETV
vector 412094  Network.dyn_peer[47]  lookupTimeSig:vector  ETV
vector 412105  Network.dyn_peer[52]  lookupHopsSig:vector  ETV
vector 412104  Network.dyn_peer[52]  lookupTimeSig:vector  ETV
vector 412103  Network.dyn_peer[51]  lookupHopsSig:vector  ETV
vector 412102  Network.dyn_peer[51]  lookupTimeSig:vector  ETV
vector 412107  Network.dyn_peer[53]  lookupHopsSig:vector  ETV
vector 412106  Network.dyn_peer[53]  lookupTimeSig:vector  ETV
vector 412111  Network.dyn_peer[55]  lookupHopsSig:vector  ETV
vector 412110  Network.dyn_peer[55]  lookupTimeSig:vector  ETV
vector 412113  Network.dyn_peer[56]  lookupHopsSig:vector  ETV
vector 412112  Network.dyn_peer[56]  lookupTimeSig:vector  ETV
vector 412109  Network.dyn_peer[54]  lookupHopsSig:vector  ETV
vector 412108  Network.dyn_peer[54]  lookupTimeSig:vector  ETV
vector 412115  Network.dyn_peer[57]  lookupHopsSig:vector  ETV
vector 412114  Network.dyn_peer[57]  lookupTimeSig:vector  ETV
vector 412121  Network.dyn_peer[60]  lookupHopsSig:vector  ETV
vector 412120  Network.dyn_peer[60]  lookupTimeSig:vector  ETV
vector 412119  Network.dyn_peer[59]  lookupHopsSig:vector  ETV
vector 412118  Network.dyn_peer[59]  lookupTimeSig:vector  ETV
vector 412123  Network.dyn_peer[61]  lookupHopsSig:vector  ETV
vector 412122  Network.dyn_peer[61]  lookupTimeSig:vector  ETV
vector 412125  Network.dyn_peer[62]  lookupHopsSig:vector  ETV
vector 412124  Network.dyn_peer[62]  lookupTimeSig:vector  ETV
vector 412117  Network.dyn_peer[58]  lookupHopsSig:vector  ETV
vector 412116  Network.dyn_peer[58]  lookupTimeSig:vector  ETV
vector 412131  Network.dyn_peer[65]  lookupHopsSig:vector  ETV
vector 412130  Network.dyn_peer[65]  lookupTimeSig:vector  ETV
vector 412133  Network.dyn_peer[66]  lookupHopsSig:vector  ETV
vector 412132  Network.dyn_peer[66]  lookupTimeSig:vector  ETV
vector 412137  Network.dyn_peer[68]  lookupHopsSig:vector  ETV
vector 412136  Network.dyn_peer[68]  lookupTimeSig:vector  ETV
vector 412129  Network.dyn_peer[64]  lookupHopsSig:vector  ETV
vector 412128  Network.dyn_peer[64]  lookupTimeSig:vector  ETV
vector 412127  Network.dyn_peer[63]  lookupHopsSig:vector  ETV
vector 412126  Network.dyn_peer[63]  lookupTimeSig:vector  ETV
vector 412141  Network.dyn_peer[70]  lookupHopsSig:vector  ETV
vector 412140  Network.dyn_peer[70]  lookupTimeSig:vector  ETV
vector 412135  Network.dyn_peer[67]  lookupHopsSig:vector  ETV
vector 412134  Network.dyn_peer[67]  lookupTimeSig:vector  ETV
vector 412143  Network.dyn_peer[71]  lookupHopsSig:vector  ETV
vector 412142  Network.dyn_peer[71]  lookupTimeSig:vector  ETV
vector 412147  Network.dyn_peer[73]  lookupHopsSig:vector  ETV
vector 412146  Network.dyn_peer[73]  lookupTimeSig:vector  ETV
vector 412139  Network.dyn_peer[69]  lookupHopsSig:vector  ETV
vector 412138  Network.dyn_peer[69]  lookupTimeSig:vector  ETV
vector 412149  Network.dyn_peer[74]  lookupHopsSig:vector  ETV
vector 412148  Network.dyn_peer[74]  lookupTimeSig:vector  ETV
vector 412151  Network.dyn_peer[75]  lookupHopsSig:vector  ETV
vector 412150  Network.dyn_peer[75]  lookupTimeSig:vector  ETV
vector 412145  Network.dyn_peer[72]  lookupHopsSig:vector  ETV
vector 412144  Network.dyn_peer[72]  lookupTimeSig:vector  ETV
vector 412153  Network.dyn_peer[76]  lookupHopsSig:vector  ETV
vector 412152  Network.dyn_peer[76]  lookupTimeSig:vector  ETV
vector 412161  Network.dyn_peer[80]  lookupHopsSig:vector  ETV
vector 412160  Network.dyn_peer[80]  lookupTimeSig:vector  ETV
vector 412155  Network.dyn_peer[77]  lookupHopsSig:vector  ETV
vector 412154  Network.dyn_peer[77]  lookupTimeSig:vector  ETV
vector 412157  Network.dyn_peer[78]  lookupHopsSig:vector  ETV
vector 412156  Network.dyn_peer[78]  lookupTimeSig:vector  ETV
vector 412159  Network.dyn_peer[79]  lookupHopsSig:vector  ETV
vector 412158  Network.dyn_peer[79]  lookupTimeSig:vector  ETV
vector 412167  Network.dyn_peer[83]  lookupHopsSig:vector  ETV
vector 412166  Network.dyn_peer[83]  lookupTimeSig:vector  ETV
vector 412163  Network.dyn_peer[81]  lookupHopsSig:vector  ETV
vector 412162  Network.dyn_peer[81]  lookupTimeSig:vector  ETV
vector 412165  Network.dyn_peer[82]  lookupHopsSig:vector  ETV
vector 412164  Network.dyn_peer[82]  lookupTimeSig:vector  ETV
vector 412173  Network.dyn_peer[86]  lookupHopsSig:vector  ETV
vector 412172  Network.dyn_peer[86]  lookupTimeSig:vector  ETV
vector 412171  Network.dyn_peer[85]  lookupHopsSig:vector  ETV
vector 412170  Network.dyn_peer[85]  lookupTimeSig:vector  ETV
vector 412175  Network.dyn_peer[87]  lookupHopsSig:vector  ETV
vector 412174  Network.dyn_peer[87]  lookupTimeSig:vector  ETV
vector 412177  Network.dyn_peer[88]  lookupHopsSig:vector  ETV
vector 412176  Network.dyn_peer[88]  lookupTimeSig:vector  ETV
vector 412169  Network.dyn_peer[84]  lookupHopsSig:vector  ETV
vector 412168  Network.dyn_peer[84]  lookupTimeSig:vector  ETV
vector 412183  Network.dyn_peer[91]  lookupHopsSig:vector  ETV
vector 412182  Network.dyn_peer[91]  lookupTimeSig:vector  ETV
vector 412185  Network.dyn_peer[92]  lookupHopsSig:vector  ETV
vector 412184  Network.dyn_peer[92]  lookupTimeSig:vector  ETV
vector 412181  Network.dyn_peer[90]  lookupHopsSig:vector  ETV
vector 412180  Network.dyn_peer[90]  lookupTimeSig:vector  ETV
vector 412187  Network.dyn_peer[93]  lookupHopsSig:vector  ETV
vector 412186  Network.dyn_peer[93]  lookupTimeSig:vector  ETV
vector 412189  Network.dyn_peer[94]  lookupHopsSig:vector  ETV
vector 412188  Network.dyn_peer[94]  lookupTimeSig:vector  ETV
vector 412193  Network.dyn_peer[96]  lookupHopsSig:vector  ETV
vector 412192  Network.dyn_peer[96]  lookupTimeSig:vector  ETV
vector 412179  Network.dyn_peer[89]  lookupHopsSig:vector  ETV
vector 412178  Network.dyn_peer[89]  lookupTimeSig:vector  ETV
vector 412191  Network.dyn_peer[95]  lookupHopsSig:vector  ETV
vector 412190  Network.dyn_peer[95]  lookupTimeSig:vector  ETV
vector 412197  Network.dyn_peer[98]  lookupHopsSig:vector  ETV
vector 412196  Network.dyn_peer[98]  lookupTimeSig:vector  ETV
vector 412199  Network.dyn_peer[99]  lookupHopsSig:vector  ETV
vector 412198  Network.dyn_peer[99]  lookupTimeSig:vector  ETV
vector 412201  Network.dyn_peer[100]  lookupHopsSig:vector  ETV
vector 412200  Network.dyn_peer[100]  lookupTimeSig:vector  ETV
vector 412205  Network.dyn_peer[102]  lookupHopsSig:vector  ETV
vector 412204  Network.dyn_peer[102]  lookupTimeSig:vector  ETV
vector 412195  Network.dyn_peer[97]  lookupHopsSig:vector  ETV
vector 412194  Network.dyn_peer[97]  lookupTimeSig:vector  ETV
vector 412209  Network.dyn_peer[104]  lookupHopsSig:vector  ETV
vector 412208  Network.dyn_peer[104]  lookupTimeSig:vector  ETV
vector 412207  Network.dyn_peer[103]  lookupHopsSig:vector  ETV
vector 412206  Network.dyn_peer[103]  lookupTimeSig:vector  ETV
vector 412211  Network.dyn_peer[105]  lookupHopsSig:vector  ETV
vector 412210  Network.dyn_peer[105]  lookupTimeSig:vector  ETV
vector 412221  Network.dyn_peer[110]  lookupHopsSig:vector  ETV
vector 412220  Network.dyn_peer[110]  lookupTimeSig:vector  ETV
vector 412217  Network.dyn_peer[108]  lookupHopsSig:vector  ETV
vector 412216  Network.dyn_peer[108]  lookupTimeSig:vector  ETV
vector 412203  Network.dyn_peer[101]  lookupHopsSig:vector  ETV
vector 412202  Network.dyn_peer[101]  lookupTimeSig:vector  ETV
vector 412213  Network.dyn_peer[106]  lookupHopsSig:vector  ETV
vector 412212  Network.dyn_peer[106]  lookupTimeSig:vector  ETV
vector 412225  Network.dyn_peer[112]  lookupHopsSig:vector  ETV
vector 412224  Network.dyn_peer[112]  lookupTimeSig:vector  ETV
vector 412223  Network.dyn_peer[111]  lookupHopsSig:vector  ETV
vector 412222  Network.dyn_peer[111]  lookupTimeSig:vector  ETV
vector 412231  Network.dyn_peer[115]  lookupHopsSig:vector  ETV
vector 412230  Network.dyn_peer[115]  lookupTimeSig:vector  ETV
vector 412219  Network.dyn_peer[109]  lookupHopsSig:vector  ETV
vector 412218  Network.dyn_peer[109]  lookupTimeSig:vector  ETV
vector 412227  Network.dyn_peer[113]  lookupHopsSig:vector  ETV
vector 412226  Network.dyn_peer[113]  lookupTimeSig:vector  ETV
vector 412215  Network.dyn_peer[107]  lookupHopsSig:vector  ETV
vector 412214  Network.dyn_peer[107]  lookupTimeSig:vector  ETV
vector 412233  Network.dyn_peer[116]  lookupHopsSig:vector  ETV
vector 412232  Network.dyn_peer[116]  lookupTimeSig:vector  ETV
vector 412235  Network.dyn_peer[117]  lookupHopsSig:vector  ETV
vector 412234  Network.dyn_peer[117]  lookupTimeSig:vector  ETV
vector 412243  Network.dyn_peer[121]  lookupHopsSig:vector  ETV
vector 412242  Network.dyn_peer[121]  lookupTimeSig:vector  ETV
vector 412229  Network.dyn_peer[114]  lookupHopsSig:vector  ETV
vector 412228  Network.dyn_peer[114]  lookupTimeSig:vector  ETV
vector 412237  Network.dyn_peer[118]  lookupHopsSig:vector  ETV
vector 412236  Network.dyn_peer[118]  lookupTimeSig:vector  ETV
vector 412239  Network.dyn_peer[119]  lookupHopsSig:vector  ETV
vector 412238  Network.dyn_peer[119]  lookupTimeSig:vector  ETV
vector 412249  Network.dyn_peer[124]  lookupHopsSig:vector  ETV
vector 412248  Network.dyn_peer[124]  lookupTimeSig:vector  ETV
vector 412247  Network.dyn_peer[123]  lookupHopsSig:vector  ETV
vector 412246  Network.dyn_peer[123]  lookupTimeSig:vector  ETV
vector 412257  Network.dyn_peer[128]  lookupHopsSig:vector  ETV
vector 412256  Network.dyn_peer[128]  lookupTimeSig:vector  ETV
vector 412245  Network.dyn_peer[122]  lookupHopsSig:vector  ETV
vector 412244  Network.dyn_peer[122]  lookupTimeSig:vector  ETV
vector 412253  Network.dyn_peer[126]  lookupHopsSig:vector  ETV
vector 412252  Network.dyn_peer[126]  lookupTimeSig:vector  ETV
vector 412241  Network.dyn_peer[120]  lookupHopsSig:vector  ETV
vector 412240  Network.dyn_peer[120]  lookupTimeSig:vector  ETV
vector 412251  Network.dyn_peer[125]  lookupHopsSig:vector  ETV
vector 412250  Network.dyn_peer[125]  lookupTimeSig:vector  ETV
vector 412261  Network.dyn_peer[130]  lookupHopsSig:vector  ETV
vector 412260  Network.dyn_peer[130]  lookupTimeSig:vector  ETV
vector 412267  Network.dyn_peer[133]  lookupHopsSig:vector  ETV
vector 412266  Network.dyn_peer[133]  lookupTimeSig:vector  ETV
vector 412255  Network.dyn_peer[127]  lookupHopsSig:vector  ETV
vector 412254  Network.dyn_peer[127]  lookupTimeSig:vector  ETV
vector 412269  Network.dyn_peer[134]  lookupHopsSig:vector  ETV
vector 412268  Network.dyn_peer[134]  lookupTimeSig:vector  ETV
vector 412259  Network.dyn_peer[129]  lookupHopsSig:vector  ETV
vector 412258  Network.dyn_peer[129]  lookupTimeSig:vector  ETV
vector 412263  Network.dyn_peer[131]  lookupHopsSig:vector  ETV
vector 412262  Network.dyn_peer[131]  lookupTimeSig:vector  ETV
vector 412265  Network.dyn_peer[132]  lookupHopsSig:vector  ETV
vector 412264  Network.dyn_peer[132]  lookupTimeSig:vector  ETV
vector 412271  Network.dyn_peer[135]  lookupHopsSig:vector  ETV
vector 412270  Network.dyn_peer[135]  lookupTimeSig:vector  ETV
vector 412273  Network.dyn_peer[136]  lookupHopsSig:vector  ETV
vector 412272  Network.dyn_peer[136]  lookupTimeSig:vector  ETV
vector 412275  Network.dyn_peer[137]  lookupHopsSig:vector  ETV
vector 412274  Network.dyn_peer[137]  lookupTimeSig:vector  ETV
vector 412279  Network.dyn_peer[139]  lookupHopsSig:vector  ETV
vector 412278  Network.dyn_peer[139]  lookupTimeSig:vector  ETV
vector 412281  Network.dyn_peer[140]  lookupHopsSig:vector  ETV
vector 412280  Network.dyn_peer[140]  lookupTimeSig:vector  ETV
vector 412277  Network.dyn_peer[138]  lookupHopsSig:vector  ETV
vector 412276  Network.dyn_peer[138]  lookupTimeSig:vector  ETV
vector 412285  Network.dyn_peer[142]  lookupHopsSig:vector  ETV
vector 412284  Network.dyn_peer[142]  lookupTimeSig:vector  ETV
vector 412295  Network.dyn_peer[147]  lookupHopsSig:vector  ETV
vector 412294  Network.dyn_peer[147]  lookupTimeSig:vector  ETV
vector 412283  Network.dyn_peer[141]  lookupHopsSig:vector  ETV
vector 412282  Network.dyn_peer[141]  lookupTimeSig:vector  ETV
vector 412287  Network.dyn_peer[143]  lookupHopsSig:vector  ETV
vector 412286  Network.dyn_peer[143]  lookupTimeSig:vector  ETV
vector 412289  Network.dyn_peer[144]  lookupHopsSig:vector  ETV
vector 412288  Network.dyn_peer[144]  lookupTimeSig:vector  ETV
vector 412297  Network.dyn_peer[148]  lookupHopsSig:vector  ETV
vector 412296  Network.dyn_peer[148]  lookupTimeSig:vector  ETV
vector 412299  Network.dyn_peer[149]  lookupHopsSig:vector  ETV
vector 412298  Network.dyn_peer[149]  lookupTimeSig:vector  ETV
vector 412291  Network.dyn_peer[145]  lookupHopsSig:vector  ETV
vector 412290  Network.dyn_peer[145]  lookupTimeSig:vector  ETV
vector 412301  Network.dyn_peer[150]  lookupHopsSig:vector  ETV
vector 412300  Network.dyn_peer[150]  lookupTimeSig:vector  ETV
vector 412303  Network.dyn_peer[151]  lookupHopsSig:vector  ETV
vector 412302  Network.dyn_peer[151]  lookupTimeSig:vector  ETV
vector 412305  Network.dyn_peer[152]  lookupHopsSig:vector  ETV
vector 412304  Network.dyn_peer[152]  lookupTimeSig:vector  ETV
vector 412293  Network.dyn_peer[146]  lookupHopsSig:vector  ETV
vector 412292  Network.dyn_peer[146]  lookupTimeSig:vector  ETV
vector 412309  Network.dyn_peer[154]  lookupHopsSig:vector  ETV
vector 412308  Network.dyn_peer[154]  lookupTimeSig:vector  ETV
vector 412307  Network.dyn_peer[153]  lookupHopsSig:vector  ETV
vector 412306  Network.dyn_peer[153]  lookupTimeSig:vector  ETV
vector 412313  Network.dyn_peer[156]  lookupHopsSig:vector  ETV
vector 412312  Network.dyn_peer[156]  lookupTimeSig:vector  ETV
vector 412311  Network.dyn_peer[155]  lookupHopsSig:vector  ETV
vector 412310  Network.dyn_peer[155]  lookupTimeSig:vector  ETV
vector 412323  Network.dyn_peer[161]  lookupHopsSig:vector  ETV
vector 412322  Network.dyn_peer[161]  lookupTimeSig:vector  ETV
vector 412319  Network.dyn_peer[159]  lookupHopsSig:vector  ETV
vector 412318  Network.dyn_peer[159]  lookupTimeSig:vector  ETV
vector 412317  Network.dyn_peer[158]  lookupHopsSig:vector  ETV
vector 412316  Network.dyn_peer[158]  lookupTimeSig:vector  ETV
vector 412321  Network.dyn_peer[160]  lookupHopsSig:vector  ETV
vector 412320  Network.dyn_peer[160]  lookupTimeSig:vector  ETV
vector 412329  Network.dyn_peer[164]  lookupHopsSig:vector  ETV
vector 412328  Network.dyn_peer[164]  lookupTimeSig:vector  ETV
vector 412331  Network.dyn_peer[165]  lookupHopsSig:vector  ETV
vector 412330  Network.dyn_peer[165]  lookupTimeSig:vector  ETV
vector 412327  Network.dyn_peer[163]  lookupHopsSig:vector  ETV
vector 412326  Network.dyn_peer[163]  lookupTimeSig:vector  ETV
vector 412333  Network.dyn_peer[166]  lookupHopsSig:vector  ETV
vector 412332  Network.dyn_peer[166]  lookupTimeSig:vector  ETV
vector 412315  Network.dyn_peer[157]  lookupHopsSig:vector  ETV
vector 412314  Network.dyn_peer[157]  lookupTimeSig:vector  ETV
vector 412325  Network.dyn_peer[162]  lookupHopsSig:vector  ETV
vector 412324  Network.dyn_peer[162]  lookupTimeSig:vector  ETV
vector 412343  Network.dyn_peer[171]  lookupHopsSig:vector  ETV
vector 412342  Network.dyn_peer[171]  lookupTimeSig:vector  ETV
vector 412345  Network.dyn_peer[172]  lookupHopsSig:vector  ETV
vector 412344  Network.dyn_peer[172]  lookupTimeSig:vector  ETV
vector 412335  Network.dyn_peer[167]  lookupHopsSig:vector  ETV
vector 412334  Network.dyn_peer[167]  lookupTimeSig:vector  ETV
vector 412339  Network.dyn_peer[169]  lookupHopsSig:vector  ETV
vector 412338  Network.dyn_peer[169]  lookupTimeSig:vector  ETV
vector 412347  Network.dyn_peer[173]  lookupHopsSig:vector  ETV
vector 412346  Network.dyn_peer[173]  lookupTimeSig:vector  ETV
vector 412341  Network.dyn_peer[170]  lookupHopsSig:vector  ETV
vector 412340  Network.dyn_peer[170]  lookupTimeSig:vector  ETV
vector 412353  Network.dyn_peer[176]  lookupHopsSig:vector  ETV
vector 412352  Network.dyn_peer[176]  lookupTimeSig:vector  ETV
vector 412349  Network.dyn_peer[174]  lookupHopsSig:vector  ETV
vector 412348  Network.dyn_peer[174]  lookupTimeSig:vector  ETV
vector 412337  Network.dyn_peer[168]  lookupHopsSig:vector  ETV
vector 412336  Network.dyn_peer[168]  lookupTimeSig:vector  ETV
vector 412359  Network.dyn_peer[179]  lookupHopsSig:vector  ETV
vector 412358  Network.dyn_peer[179]  lookupTimeSig:vector  ETV
vector 412357  Network.dyn_peer[178]  lookupHopsSig:vector  ETV
vector 412356  Network.dyn_peer[178]  lookupTimeSig:vector  ETV
vector 412351  Network.dyn_peer[175]  lookupHopsSig:vector  ETV
vector 412350  Network.dyn_peer[175]  lookupTimeSig:vector  ETV
vector 412369  Network.dyn_peer[184]  lookupHopsSig:vector  ETV
vector 412368  Network.dyn_peer[184]  lookupTimeSig:vector  ETV
vector 412365  Network.dyn_peer[182]  lookupHopsSig:vector  ETV
vector 412364  Network.dyn_peer[182]  lookupTimeSig:vector  ETV
vector 412355  Network.dyn_peer[177]  lookupHopsSig:vector  ETV
vector 412354  Network.dyn_peer[177]  lookupTimeSig:vector  ETV
vector 412363  Network.dyn_peer[181]  lookupHopsSig:vector  ETV
vector 412362  Network.dyn_peer[181]  lookupTimeSig:vector  ETV
vector 412367  Network.dyn_peer[183]  lookupHopsSig:vector  ETV
vector 412366  Network.dyn_peer[183]  lookupTimeSig:vector  ETV
vector 412377  Network.dyn_peer[188]  lookupHopsSig:vector  ETV
vector 412376  Network.dyn_peer[188]  lookupTimeSig:vector  ETV
vector 412381  Network.dyn_peer[190]  lookupHopsSig:vector  ETV
vector 412380  Network.dyn_peer[190]  lookupTimeSig:vector  ETV
vector 412371  Network.dyn_peer[185]  lookupHopsSig:vector  ETV
vector 412370  Network.dyn_peer[185]  lookupTimeSig:vector  ETV
vector 412375  Network.dyn_peer[187]  lookupHopsSig:vector  ETV
vector 412374  Network.dyn_peer[187]  lookupTimeSig:vector  ETV
vector 412361  Network.dyn_peer[180]  lookupHopsSig:vector  ETV
vector 412360  Network.dyn_peer[180]  lookupTimeSig:vector  ETV
vector 412373  Network.dyn_peer[186]  lookupHopsSig:vector  ETV
vector 412372  Network.dyn_peer[186]  lookupTimeSig:vector  ETV
vector 412387  Network.dyn_peer[193]  lookupHopsSig:vector  ETV
vector 412386  Network.dyn_peer[193]  lookupTimeSig:vector  ETV
vector 412391  Network.dyn_peer[195]  lookupHopsSig:vector  ETV
vector 412390  Network.dyn_peer[195]  lookupTimeSig:vector  ETV
vector 412389  Network.dyn_peer[194]  lookupHopsSig:vector  ETV
vector 412388  Network.dyn_peer[194]  lookupTimeSig:vector  ETV
vector 412399  Network.dyn_peer[199]  lookupHopsSig:vector  ETV
vector 412398  Network.dyn_peer[199]  lookupTimeSig:vector  ETV
vector 412401  Network.dyn_peer[200]  lookupHopsSig:vector  ETV
vector 412400  Network.dyn_peer[200]  lookupTimeSig:vector  ETV
vector 412379  Network.dyn_peer[189]  lookupHopsSig:vector  ETV
vector 412378  Network.dyn_peer[189]  lookupTimeSig:vector  ETV
vector 412385  Network.dyn_peer[192]  lookupHopsSig:vector  ETV
vector 412384  Network.dyn_peer[192]  lookupTimeSig:vector  ETV
vector 412395  Network.dyn_peer[197]  lookupHopsSig:vector  ETV
vector 412394  Network.dyn_peer[197]  lookupTimeSig:vector  ETV
vector 412407  Network.dyn_peer[203]  lookupHopsSig:vector  ETV
vector 412406  Network.dyn_peer[203]  lookupTimeSig:vector  ETV
vector 412397  Network.dyn_peer[198]  lookupHopsSig:vector  ETV
vector 412396  Network.dyn_peer[198]  lookupTimeSig:vector  ETV
vector 412393  Network.dyn_peer[196]  lookupHopsSig:vector  ETV
vector 412392  Network.dyn_peer[196]  lookupTimeSig:vector  ETV
vector 412383  Network.dyn_peer[191]  lookupHopsSig:vector  ETV
vector 412382  Network.dyn_peer[191]  lookupTimeSig:vector  ETV
vector 412405  Network.dyn_peer[202]  lookupHopsSig:vector  ETV
vector 412404  Network.dyn_peer[202]  lookupTimeSig:vector  ETV
vector 412409  Network.dyn_peer[204]  lookupHopsSig:vector  ETV
vector 412408  Network.dyn_peer[204]  lookupTimeSig:vector  ETV
vector 412413  Network.dyn_peer[206]  lookupHopsSig:vector  ETV
vector 412412  Network.dyn_peer[206]  lookupTimeSig:vector  ETV
vector 412411  Network.dyn_peer[205]  lookupHopsSig:vector  ETV
vector 412410  Network.dyn_peer[205]  lookupTimeSig:vector  ETV
vector 412417  Network.dyn_peer[208]  lookupHopsSig:vector  ETV
vector 412416  Network.dyn_peer[208]  lookupTimeSig:vector  ETV
vector 412403  Network.dyn_peer[201]  lookupHopsSig:vector  ETV
vector 412402  Network.dyn_peer[201]  lookupTimeSig:vector  ETV
vector 412425  Network.dyn_peer[212]  lookupHopsSig:vector  ETV
vector 412424  Network.dyn_peer[212]  lookupTimeSig:vector  ETV
vector 412415  Network.dyn_peer[207]  lookupHopsSig:vector  ETV
vector 412414  Network.dyn_peer[207]  lookupTimeSig:vector  ETV
vector 412433  Network.dyn_peer[216]  lookupHopsSig:vector  ETV
vector 412432  Network.dyn_peer[216]  lookupTimeSig:vector  ETV
vector 412419  Network.dyn_peer[209]  lookupHopsSig:vector  ETV
vector 412418  Network.dyn_peer[209]  lookupTimeSig:vector  ETV
vector 412421  Network.dyn_peer[210]  lookupHopsSig:vector  ETV
vector 412420  Network.dyn_peer[210]  lookupTimeSig:vector  ETV
vector 412431  Network.dyn_peer[215]  lookupHopsSig:vector  ETV
vector 412430  Network.dyn_peer[215]  lookupTimeSig:vector  ETV
vector 412435  Network.dyn_peer[217]  lookupHopsSig:vector  ETV
vector 412434  Network.dyn_peer[217]  lookupTimeSig:vector  ETV
vector 412439  Network.dyn_peer[219]  lookupHopsSig:vector  ETV
vector 412438  Network.dyn_peer[219]  lookupTimeSig:vector  ETV
vector 412427  Network.dyn_peer[213]  lookupHopsSig:vector  ETV
vector 412426  Network.dyn_peer[213]  lookupTimeSig:vector  ETV
vector 412437  Network.dyn_peer[218]  lookupHopsSig:vector  ETV
vector 412436  Network.dyn_peer[218]  lookupTimeSig:vector  ETV
vector 412443  Network.dyn_peer[221]  lookupHopsSig:vector  ETV
vector 412442  Network.dyn_peer[221]  lookupTimeSig:vector  ETV
vector 412423  Network.dyn_peer[211]  lookupHopsSig:vector  ETV
vector 412422  Network.dyn_peer[211]  lookupTimeSig:vector  ETV
vector 412453  Network.dyn_peer[226]  lookupHopsSig:vector  ETV
vector 412452  Network.dyn_peer[226]  lookupTimeSig:vector  ETV
vector 412447  Network.dyn_peer[223]  lookupHopsSig:vector  ETV
vector 412446  Network.dyn_peer[223]  lookupTimeSig:vector  ETV
vector 412451  Network.dyn_peer[225]  lookupHopsSig:vector  ETV
vector 412450  Network.dyn_peer[225]  lookupTimeSig:vector  ETV
vector 412445  Network.dyn_peer[222]  lookupHopsSig:vector  ETV
vector 412444  Network.dyn_peer[222]  lookupTimeSig:vector  ETV
vector 412441  Network.dyn_peer[220]  lookupHopsSig:vector  ETV
vector 412440  Network.dyn_peer[220]  lookupTimeSig:vector  ETV
vector 412429  Network.dyn_peer[214]  lookupHopsSig:vector  ETV
vector 412428  Network.dyn_peer[214]  lookupTimeSig:vector  ETV
vector 412455  Network.dyn_peer[227]  lookupHopsSig:vector  ETV
vector 412454  Network.dyn_peer[227]  lookupTimeSig:vector  ETV
vector 412449  Network.dyn_peer[224]  lookupHopsSig:vector  ETV
vector 412448  Network.dyn_peer[224]  lookupTimeSig:vector  ETV
vector 412457  Network.dyn_peer[228]  lookupHopsSig:vector  ETV
vector 412456  Network.dyn_peer[228]  lookupTimeSig:vector  ETV
vector 412467  Network.dyn_peer[233]  lookupHopsSig:vector  ETV
vector 412466  Network.dyn_peer[233]  lookupTimeSig:vector  ETV
vector 412473  Network.dyn_peer[236]  lookupHopsSig:vector  ETV
vector 412472  Network.dyn_peer[236]  lookupTimeSig:vector  ETV
vector 412463  Network.dyn_peer[231]  lookupHopsSig:vector  ETV
vector 412462  Network.dyn_peer[231]  lookupTimeSig:vector  ETV