file 893781 1369168662                                          
version 2
run Stability-159-20130521-22:37:37-23591
attr configname Stability
attr datetime 20130521-22:37:37
attr experiment Stability
attr inifile omnetpp.ini
attr iterationvars $0=0.25
attr iterationvars2 "$0=0.25, $repetition=9"
attr measurement $0=0.25
attr network Network
attr processid 23591
attr repetition 9
attr replication #9
attr resultdir results
attr runnumber 159
attr seedset 159

vector 318003  Network.dyn_peer[1]  lookupHopsSig:vector  ETV
vector 318002  Network.dyn_peer[1]  lookupTimeSig:vector  ETV
vector 318001  Network.dyn_peer[0]  lookupHopsSig:vector  ETV
vector 318000  Network.dyn_peer[0]  lookupTimeSig:vector  ETV
vector 318005  Network.dyn_peer[2]  lookupHopsSig:vector  ETV
vector 318004  Network.dyn_peer[2]  lookupTimeSig:vector  ETV
vector 318007  Network.dyn_peer[3]  lookupHopsSig:vector  ETV
vector 318006  Network.dyn_peer[3]  lookupTimeSig:vector  ETV
vector 318009  Network.dyn_peer[4]  lookupHopsSig:vector  ETV
vector 318008  Network.dyn_peer[4]  lookupTimeSig:vector  ETV
vector 318011  Network.dyn_peer[5]  lookupHopsSig:vector  ETV
vector 318010  Network.dyn_peer[5]  lookupTimeSig:vector  ETV
vector 318013  Network.dyn_peer[6]  lookupHopsSig:vector  ETV
vector 318012  Network.dyn_peer[6]  lookupTimeSig:vector  ETV
vector 318015  Network.dyn_peer[7]  lookupHopsSig:vector  ETV
vector 318014  Network.dyn_peer[7]  lookupTimeSig:vector  ETV
vector 318017  Network.dyn_peer[8]  lookupHopsSig:vector  ETV
vector 318016  Network.dyn_peer[8]  lookupTimeSig:vector  ETV
vector 318019  Network.dyn_peer[9]  lookupHopsSig:vector  ETV
vector 318018  Network.dyn_peer[9]  lookupTimeSig:vector  ETV
vector 318021  Network.dyn_peer[10]  lookupHopsSig:vector  ETV
vector 318020  Network.dyn_peer[10]  lookupTimeSig:vector  ETV
vector 318023  Network.dyn_peer[11]  lookupHopsSig:vector  ETV
vector 318022  Network.dyn_peer[11]  lookupTimeSig:vector  ETV
vector 318025  Network.dyn_peer[12]  lookupHopsSig:vector  ETV
vector 318024  Network.dyn_peer[12]  lookupTimeSig:vector  ETV
vector 318027  Network.dyn_peer[13]  lookupHopsSig:vector  ETV
vector 318026  Network.dyn_peer[13]  lookupTimeSig:vector  ETV
vector 318031  Network.dyn_peer[15]  lookupHopsSig:vector  ETV
vector 318030  Network.dyn_peer[15]  lookupTimeSig:vector  ETV
vector 318029  Network.dyn_peer[14]  lookupHopsSig:vector  ETV
vector 318028  Network.dyn_peer[14]  lookupTimeSig:vector  ETV
vector 318033  Network.dyn_peer[16]  lookupHopsSig:vector  ETV
vector 318032  Network.dyn_peer[16]  lookupTimeSig:vector  ETV
vector 318037  Network.dyn_peer[18]  lookupHopsSig:vector  ETV
vector 318036  Network.dyn_peer[18]  lookupTimeSig:vector  ETV
vector 318035  Network.dyn_peer[17]  lookupHopsSig:vector  ETV
vector 318034  Network.dyn_peer[17]  lookupTimeSig:vector  ETV
vector 318039  Network.dyn_peer[19]  lookupHopsSig:vector  ETV
vector 318038  Network.dyn_peer[19]  lookupTimeSig:vector  ETV
vector 318043  Network.dyn_peer[21]  lookupHopsSig:vector  ETV
vector 318042  Network.dyn_peer[21]  lookupTimeSig:vector  ETV
vector 318041  Network.dyn_peer[20]  lookupHopsSig:vector  ETV
vector 318040  Network.dyn_peer[20]  lookupTimeSig:vector  ETV
vector 318045  Network.dyn_peer[22]  lookupHopsSig:vector  ETV
vector 318044  Network.dyn_peer[22]  lookupTimeSig:vector  ETV
vector 318047  Network.dyn_peer[23]  lookupHopsSig:vector  ETV
vector 318046  Network.dyn_peer[23]  lookupTimeSig:vector  ETV
vector 318049  Network.dyn_peer[24]  lookupHopsSig:vector  ETV
vector 318048  Network.dyn_peer[24]  lookupTimeSig:vector  ETV
vector 318051  Network.dyn_peer[25]  lookupHopsSig:vector  ETV
vector 318050  Network.dyn_peer[25]  lookupTimeSig:vector  ETV
vector 318055  Network.dyn_peer[27]  lookupHopsSig:vector  ETV
vector 318054  Network.dyn_peer[27]  lookupTimeSig:vector  ETV
vector 318053  Network.dyn_peer[26]  lookupHopsSig:vector  ETV
vector 318052  Network.dyn_peer[26]  lookupTimeSig:vector  ETV
vector 318059  Network.dyn_peer[29]  lookupHopsSig:vector  ETV
vector 318058  Network.dyn_peer[29]  lookupTimeSig:vector  ETV
vector 318057  Network.dyn_peer[28]  lookupHopsSig:vector  ETV
vector 318056  Network.dyn_peer[28]  lookupTimeSig:vector  ETV
vector 318061  Network.dyn_peer[30]  lookupHopsSig:vector  ETV
vector 318060  Network.dyn_peer[30]  lookupTimeSig:vector  ETV
vector 318063  Network.dyn_peer[31]  lookupHopsSig:vector  ETV
vector 318062  Network.dyn_peer[31]  lookupTimeSig:vector  ETV
vector 318065  Network.dyn_peer[32]  lookupHopsSig:vector  ETV
vector 318064  Network.dyn_peer[32]  lookupTimeSig:vector  ETV
vector 318067  Network.dyn_peer[33]  lookupHopsSig:vector  ETV
vector 318066  Network.dyn_peer[33]  lookupTimeSig:vector  ETV
vector 318069  Network.dyn_peer[34]  lookupHopsSig:vector  ETV
vector 318068  Network.dyn_peer[34]  lookupTimeSig:vector  ETV
vector 318071  Network.dyn_peer[35]  lookupHopsSig:vector  ETV
vector 318070  Network.dyn_peer[35]  lookupTimeSig:vector  ETV
vector 318073  Network.dyn_peer[36]  lookupHopsSig:vector  ETV
vector 318072  Network.dyn_peer[36]  lookupTimeSig:vector  ETV
vector 318075  Network.dyn_peer[37]  lookupHopsSig:vector  ETV
vector 318074  Network.dyn_peer[37]  lookupTimeSig:vector  ETV
vector 318077  Network.dyn_peer[38]  lookupHopsSig:vector  ETV
vector 318076  Network.dyn_peer[38]  lookupTimeSig:vector  ETV
vector 318079  Network.dyn_peer[39]  lookupHopsSig:vector  ETV
vector 318078  Network.dyn_peer[39]  lookupTimeSig:vector  ETV
vector 318081  Network.dyn_peer[40]  lookupHopsSig:vector  ETV
vector 318080  Network.dyn_peer[40]  lookupTimeSig:vector  ETV
vector 318085  Network.dyn_peer[42]  lookupHopsSig:vector  ETV
vector 318084  Network.dyn_peer[42]  lookupTimeSig:vector  ETV
vector 318087  Network.dyn_peer[43]  lookupHopsSig:vector  ETV
vector 318086  Network.dyn_peer[43]  lookupTimeSig:vector  ETV
vector 318083  Network.dyn_peer[41]  lookupHopsSig:vector  ETV
vector 318082  Network.dyn_peer[41]  lookupTimeSig:vector  ETV
vector 318089  Network.dyn_peer[44]  lookupHopsSig:vector  ETV
vector 318088  Network.dyn_peer[44]  lookupTimeSig:vector  ETV
vector 318093  Network.dyn_peer[46]  lookupHopsSig:vector  ETV
vector 318092  Network.dyn_peer[46]  lookupTimeSig:vector  ETV
vector 318091  Network.dyn_peer[45]  lookupHopsSig:vector  ETV
vector 318090  Network.dyn_peer[45]  lookupTimeSig:vector  ETV
vector 318097  Network.dyn_peer[48]  lookupHopsSig:vector  ETV
vector 318096  Network.dyn_peer[48]  lookupTimeSig:vector  ETV
vector 318095  Network.dyn_peer[47]  lookupHopsSig:vector  ETV
vector 318094  Network.dyn_peer[47]  lookupTimeSig:vector  ETV
vector 318099  Network.dyn_peer[49]  lookupHopsSig:vector  ETV
vector 318098  Network.dyn_peer[49]  lookupTimeSig:vector  ETV
vector 318101  Network.dyn_peer[50]  lookupHopsSig:vector  ETV
vector 318100  Network.dyn_peer[50]  lookupTimeSig:vector  ETV
vector 318103  Network.dyn_peer[51]  lookupHopsSig:vector  ETV
vector 318102  Network.dyn_peer[51]  lookupTimeSig:vector  ETV
vector 318107  Network.dyn_peer[53]  lookupHopsSig:vector  ETV
vector 318106  Network.dyn_peer[53]  lookupTimeSig:vector  ETV
vector 318105  Network.dyn_peer[52]  lookupHopsSig:vector  ETV
vector 318104  Network.dyn_peer[52]  lookupTimeSig:vector  ETV
vector 318111  Network.dyn_peer[55]  lookupHopsSig:vector  ETV
vector 318110  Network.dyn_peer[55]  lookupTimeSig:vector  ETV
vector 318109  Network.dyn_peer[54]  lookupHopsSig:vector  ETV
vector 318108  Network.dyn_peer[54]  lookupTimeSig:vector  ETV
vector 318113  Network.dyn_peer[56]  lookupHopsSig:vector  ETV
vector 318112  Network.dyn_peer[56]  lookupTimeSig:vector  ETV
vector 318115  Network.dyn_peer[57]  lookupHopsSig:vector  ETV
vector 318114  Network.dyn_peer[57]  lookupTimeSig:vector  ETV
vector 318119  Network.dyn_peer[59]  lookupHopsSig:vector  ETV
vector 318118  Network.dyn_peer[59]  lookupTimeSig:vector  ETV
vector 318117  Network.dyn_peer[58]  lookupHopsSig:vector  ETV
vector 318116  Network.dyn_peer[58]  lookupTimeSig:vector  ETV
vector 318121  Network.dyn_peer[60]  lookupHopsSig:vector  ETV
vector 318120  Network.dyn_peer[60]  lookupTimeSig:vector  ETV
vector 318123  Network.dyn_peer[61]  lookupHopsSig:vector  ETV
vector 318122  Network.dyn_peer[61]  lookupTimeSig:vector  ETV
vector 318125  Network.dyn_peer[62]  lookupHopsSig:vector  ETV
vector 318124  Network.dyn_peer[62]  lookupTimeSig:vector  ETV
vector 318127  Network.dyn_peer[63]  lookupHopsSig:vector  ETV
vector 318126  Network.dyn_peer[63]  lookupTimeSig:vector  ETV
vector 318131  Network.dyn_peer[65]  lookupHopsSig:vector  ETV
vector 318130  Network.dyn_peer[65]  lookupTimeSig:vector  ETV
vector 318129  Network.dyn_peer[64]  lookupHopsSig:vector  ETV
vector 318128  Network.dyn_peer[64]  lookupTimeSig:vector  ETV
vector 318135  Network.dyn_peer[67]  lookupHopsSig:vector  ETV
vector 318134  Network.dyn_peer[67]  lookupTimeSig:vector  ETV
vector 318133  Network.dyn_peer[66]  lookupHopsSig:vector  ETV
vector 318132  Network.dyn_peer[66]  lookupTimeSig:vector  ETV
vector 318137  Network.dyn_peer[68]  lookupHopsSig:vector  ETV
vector 318136  Network.dyn_peer[68]  lookupTimeSig:vector  ETV
vector 318141  Network.dyn_peer[70]  lookupHopsSig:vector  ETV
vector 318140  Network.dyn_peer[70]  lookupTimeSig:vector  ETV
vector 318139  Network.dyn_peer[69]  lookupHopsSig:vector  ETV
vector 318138  Network.dyn_peer[69]  lookupTimeSig:vector  ETV
vector 318145  Network.dyn_peer[72]  lookupHopsSig:vector  ETV
vector 318144  Network.dyn_peer[72]  lookupTimeSig:vector  ETV
vector 318143  Network.dyn_peer[71]  lookupHopsSig:vector  ETV
vector 318142  Network.dyn_peer[71]  lookupTimeSig:vector  ETV
vector 318147  Network.dyn_peer[73]  lookupHopsSig:vector  ETV
vector 318146  Network.dyn_peer[73]  lookupTimeSig:vector  ETV
vector 318149  Network.dyn_peer[74]  lookupHopsSig:vector  ETV
vector 318148  Network.dyn_peer[74]  lookupTimeSig:vector  ETV
vector 318153  Network.dyn_peer[76]  lookupHopsSig:vector  ETV
vector 318152  Network.dyn_peer[76]  lookupTimeSig:vector  ETV
vector 318155  Network.dyn_peer[77]  lookupHopsSig:vector  ETV
vector 318154  Network.dyn_peer[77]  lookupTimeSig:vector  ETV
vector 318157  Network.dyn_peer[78]  lookupHopsSig:vector  ETV
vector 318156  Network.dyn_peer[78]  lookupTimeSig:vector  ETV
vector 318151  Network.dyn_peer[75]  lookupHopsSig:vector  ETV
vector 318150  Network.dyn_peer[75]  lookupTimeSig:vector  ETV
vector 318159  Network.dyn_peer[79]  lookupHopsSig:vector  ETV
vector 318158  Network.dyn_peer[79]  lookupTimeSig:vector  ETV
vector 318163  Network.dyn_peer[81]  lookupHopsSig:vector  ETV
vector 318162  Network.dyn_peer[81]  lookupTimeSig:vector  ETV
vector 318165  Network.dyn_peer[82]  lookupHopsSig:vector  ETV
vector 318164  Network.dyn_peer[82]  lookupTimeSig:vector  ETV
vector 318161  Network.dyn_peer[80]  lookupHopsSig:vector  ETV
vector 318160  Network.dyn_peer[80]  lookupTimeSig:vector  ETV
vector 318171  Network.dyn_peer[85]  lookupHopsSig:vector  ETV
vector 318170  Network.dyn_peer[85]  lookupTimeSig:vector  ETV
vector 318169  Network.dyn_peer[84]  lookupHopsSig:vector  ETV
vector 318168  Network.dyn_peer[84]  lookupTimeSig:vector  ETV
vector 318173  Network.dyn_peer[86]  lookupHopsSig:vector  ETV
vector 318172  Network.dyn_peer[86]  lookupTimeSig:vector  ETV
vector 318167  Network.dyn_peer[83]  lookupHopsSig:vector  ETV
vector 318166  Network.dyn_peer[83]  lookupTimeSig:vector  ETV
vector 318175  Network.dyn_peer[87]  lookupHopsSig:vector  ETV
vector 318174  Network.dyn_peer[87]  lookupTimeSig:vector  ETV
vector 318179  Network.dyn_peer[89]  lookupHopsSig:vector  ETV
vector 318178  Network.dyn_peer[89]  lookupTimeSig:vector  ETV
vector 318183  Network.dyn_peer[91]  lookupHopsSig:vector  ETV
vector 318182  Network.dyn_peer[91]  lookupTimeSig:vector  ETV
vector 318181  Network.dyn_peer[90]  lookupHopsSig:vector  ETV
vector 318180  Network.dyn_peer[90]  lookupTimeSig:vector  ETV
vector 318177  Network.dyn_peer[88]  lookupHopsSig:vector  ETV
vector 318176  Network.dyn_peer[88]  lookupTimeSig:vector  ETV
vector 318185  Network.dyn_peer[92]  lookupHopsSig:vector  ETV
vector 318184  Network.dyn_peer[92]  lookupTimeSig:vector  ETV
vector 318187  Network.dyn_peer[93]  lookupHopsSig:vector  ETV
vector 318186  Network.dyn_peer[93]  lookupTimeSig:vector  ETV
vector 318189  Network.dyn_peer[94]  lookupHopsSig:vector  ETV
vector 318188  Network.dyn_peer[94]  lookupTimeSig:vector  ETV
vector 318191  Network.dyn_peer[95]  lookupHopsSig:vector  ETV
vector 318190  Network.dyn_peer[95]  lookupTimeSig:vector  ETV
vector 318193  Network.dyn_peer[96]  lookupHopsSig:vector  ETV
vector 318192  Network.dyn_peer[96]  lookupTimeSig:vector  ETV
vector 318197  Network.dyn_peer[98]  lookupHopsSig:vector  ETV
vector 318196  Network.dyn_peer[98]  lookupTimeSig:vector  ETV
vector 318195  Network.dyn_peer[97]  lookupHopsSig:vector  ETV
vector 318194  Network.dyn_peer[97]  lookupTimeSig:vector  ETV
vector 318199  Network.dyn_peer[99]  lookupHopsSig:vector  ETV
vector 318198  Network.dyn_peer[99]  lookupTimeSig:vector  ETV
vector 318205  Network.dyn_peer[102]  lookupHopsSig:vector  ETV
vector 318204  Network.dyn_peer[102]  lookupTimeSig:vector  ETV
vector 318201  Network.dyn_peer[100]  lookupHopsSig:vector  ETV
vector 318200  Network.dyn_peer[100]  lookupTimeSig:vector  ETV
vector 318203  Network.dyn_peer[101]  lookupHopsSig:vector  ETV
vector 318202  Network.dyn_peer[101]  lookupTimeSig:vector  ETV
vector 318209  Network.dyn_peer[104]  lookupHopsSig:vector  ETV
vector 318208  Network.dyn_peer[104]  lookupTimeSig:vector  ETV
vector 318207  Network.dyn_peer[103]  lookupHopsSig:vector  ETV
vector 318206  Network.dyn_peer[103]  lookupTimeSig:vector  ETV
vector 318213  Network.dyn_peer[106]  lookupHopsSig:vector  ETV
vector 318212  Network.dyn_peer[106]  lookupTimeSig:vector  ETV
vector 318211  Network.dyn_peer[105]  lookupHopsSig:vector  ETV
vector 318210  Network.dyn_peer[105]  lookupTimeSig:vector  ETV
vector 318215  Network.dyn_peer[107]  lookupHopsSig:vector  ETV
vector 318214  Network.dyn_peer[107]  lookupTimeSig:vector  ETV
vector 318217  Network.dyn_peer[108]  lookupHopsSig:vector  ETV
vector 318216  Network.dyn_peer[108]  lookupTimeSig:vector  ETV
vector 318219  Network.dyn_peer[109]  lookupHopsSig:vector  ETV
vector 318218  Network.dyn_peer[109]  lookupTimeSig:vector  ETV
vector 318221  Network.dyn_peer[110]  lookupHopsSig:vector  ETV
vector 318220  Network.dyn_peer[110]  lookupTimeSig:vector  ETV
vector 318223  Network.dyn_peer[111]  lookupHopsSig:vector  ETV
vector 318222  Network.dyn_peer[111]  lookupTimeSig:vector  ETV
vector 318225  Network.dyn_peer[112]  lookupHopsSig:vector  ETV
vector 318224  Network.dyn_peer[112]  lookupTimeSig:vector  ETV
vector 318227  Network.dyn_peer[113]  lookupHopsSig:vector  ETV
vector 318226  Network.dyn_peer[113]  lookupTimeSig:vector  ETV
vector 318229  Network.dyn_peer[114]  lookupHopsSig:vector  ETV
vector 318228  Network.dyn_peer[114]  lookupTimeSig:vector  ETV
vector 318231  Network.dyn_peer[115]  lookupHopsSig:vector  ETV
vector 318230  Network.dyn_peer[115]  lookupTimeSig:vector  ETV
vector 318233  Network.dyn_peer[116]  lookupHopsSig:vector  ETV
vector 318232  Network.dyn_peer[116]  lookupTimeSig:vector  ETV
vector 318235  Network.dyn_peer[117]  lookupHopsSig:vector  ETV
vector 318234  Network.dyn_peer[117]  lookupTimeSig:vector  ETV
vector 318239  Network.dyn_peer[119]  lookupHopsSig:vector  ETV
vector 318238  Network.dyn_peer[119]  lookupTimeSig:vector  ETV
vector 318237  Network.dyn_peer[118]  lookupHopsSig:vector  ETV
vector 318236  Network.dyn_peer[118]  lookupTimeSig:vector  ETV
vector 318243  Network.dyn_peer[121]  lookupHopsSig:vector  ETV
vector 318242  Network.dyn_peer[121]  lookupTimeSig:vector  ETV
vector 318247  Network.dyn_peer[123]  lookupHopsSig:vector  ETV
vector 318246  Network.dyn_peer[123]  lookupTimeSig:vector  ETV
vector 318241  Network.dyn_peer[120]  lookupHopsSig:vector  ETV
vector 318240  Network.dyn_peer[120]  lookupTimeSig:vector  ETV
vector 318245  Network.dyn_peer[122]  lookupHopsSig:vector  ETV
vector 318244  Network.dyn_peer[122]  lookupTimeSig:vector  ETV
vector 318249  Network.dyn_peer[124]  lookupHopsSig:vector  ETV
vector 318248  Network.dyn_peer[124]  lookupTimeSig:vector  ETV
vector 318251  Network.dyn_peer[125]  lookupHopsSig:vector  ETV
vector 318250  Network.dyn_peer[125]  lookupTimeSig:vector  ETV
vector 318257  Network.dyn_peer[128]  lookupHopsSig:vector  ETV
vector 318256  Network.dyn_peer[128]  lookupTimeSig:vector  ETV
vector 318255  Network.dyn_peer[127]  lookupHopsSig:vector  ETV
vector 318254  Network.dyn_peer[127]  lookupTimeSig:vector  ETV
vector 318253  Network.dyn_peer[126]  lookupHopsSig:vector  ETV
vector 318252  Network.dyn_peer[126]  lookupTimeSig:vector  ETV
vector 318259  Network.dyn_peer[129]  lookupHopsSig:vector  ETV
vector 318258  Network.dyn_peer[129]  lookupTimeSig:vector  ETV
vector 318263  Network.dyn_peer[131]  lookupHopsSig:vector  ETV
vector 318262  Network.dyn_peer[131]  lookupTimeSig:vector  ETV
vector 318261  Network.dyn_peer[130]  lookupHopsSig:vector  ETV
vector 318260  Network.dyn_peer[130]  lookupTimeSig:vector  ETV
vector 318265  Network.dyn_peer[132]  lookupHopsSig:vector  ETV
vector 318264  Network.dyn_peer[132]  lookupTimeSig:vector  ETV
vector 318267  Network.dyn_peer[133]  lookupHopsSig:vector  ETV
vector 318266  Network.dyn_peer[133]  lookupTimeSig:vector  ETV
vector 318271  Network.dyn_peer[135]  lookupHopsSig:vector  ETV
vector 318270  Network.dyn_peer[135]  lookupTimeSig:vector  ETV
vector 318277  Network.dyn_peer[138]  lookupHopsSig:vector  ETV
vector 318276  Network.dyn_peer[138]  lookupTimeSig:vector  ETV
vector 318269  Network.dyn_peer[134]  lookupHopsSig:vector  ETV
vector 318268  Network.dyn_peer[134]  lookupTimeSig:vector  ETV
vector 318273  Network.dyn_peer[136]  lookupHopsSig:vector  ETV
vector 318272  Network.dyn_peer[136]  lookupTimeSig:vector  ETV
vector 318279  Network.dyn_peer[139]  lookupHopsSig:vector  ETV
vector 318278  Network.dyn_peer[139]  lookupTimeSig:vector  ETV
vector 318283  Network.dyn_peer[141]  lookupHopsSig:vector  ETV
vector 318282  Network.dyn_peer[141]  lookupTimeSig:vector  ETV
vector 318281  Network.dyn_peer[140]  lookupHopsSig:vector  ETV
vector 318280  Network.dyn_peer[140]  lookupTimeSig:vector  ETV
vector 318285  Network.dyn_peer[142]  lookupHopsSig:vector  ETV
vector 318284  Network.dyn_peer[142]  lookupTimeSig:vector  ETV
vector 318275  Network.dyn_peer[137]  lookupHopsSig:vector  ETV
vector 318274  Network.dyn_peer[137]  lookupTimeSig:vector  ETV
vector 318289  Network.dyn_peer[144]  lookupHopsSig:vector  ETV
vector 318288  Network.dyn_peer[144]  lookupTimeSig:vector  ETV
vector 318287  Network.dyn_peer[143]  lookupHopsSig:vector  ETV
vector 318286  Network.dyn_peer[143]  lookupTimeSig:vector  ETV
vector 318293  Network.dyn_peer[146]  lookupHopsSig:vector  ETV
vector 318292  Network.dyn_peer[146]  lookupTimeSig:vector  ETV
vector 318291  Network.dyn_peer[145]  lookupHopsSig:vector  ETV
vector 318290  Network.dyn_peer[145]  lookupTimeSig:vector  ETV
vector 318299  Network.dyn_peer[149]  lookupHopsSig:vector  ETV
vector 318298  Network.dyn_peer[149]  lookupTimeSig:vector  ETV
vector 318297  Network.dyn_peer[148]  lookupHopsSig:vector  ETV
vector 318296  Network.dyn_peer[148]  lookupTimeSig:vector  ETV
vector 318301  Network.dyn_peer[150]  lookupHopsSig:vector  ETV
vector 318300  Network.dyn_peer[150]  lookupTimeSig:vector  ETV
vector 318295  Network.dyn_peer[147]  lookupHopsSig:vector  ETV
vector 318294  Network.dyn_peer[147]  lookupTimeSig:vector  ETV
vector 318303  Network.dyn_peer[151]  lookupHopsSig:vector  ETV
vector 318302  Network.dyn_peer[151]  lookupTimeSig:vector  ETV
vector 318305  Network.dyn_peer[152]  lookupHopsSig:vector  ETV
vector 318304  Network.dyn_peer[152]  lookupTimeSig:vector  ETV
vector 318307  Network.dyn_peer[153]  lookupHopsSig:vector  ETV
vector 318306  Network.dyn_peer[153]  lookupTimeSig:vector  ETV
vector 318309  Network.dyn_peer[154]  lookupHopsSig:vector  ETV
vector 318308  Network.dyn_peer[154]  lookupTimeSig:vector  ETV
vector 318313  Network.dyn_peer[156]  lookupHopsSig:vector  ETV
vector 318312  Network.dyn_peer[156]  lookupTimeSig:vector  ETV
vector 318315  Network.dyn_peer[157]  lookupHopsSig:vector  ETV
vector 318314  Network.dyn_peer[157]  lookupTimeSig:vector  ETV
vector 318311  Network.dyn_peer[155]  lookupHopsSig:vector  ETV
vector 318310  Network.dyn_peer[155]  lookupTimeSig:vector  ETV
vector 318317  Network.dyn_peer[158]  lookupHopsSig:vector  ETV
vector 318316  Network.dyn_peer[158]  lookupTimeSig:vector  ETV
vector 318319  Network.dyn_peer[159]  lookupHopsSig:vector  ETV
vector 318318  Network.dyn_peer[159]  lookupTimeSig:vector  ETV
vector 318321  Network.dyn_peer[160]  lookupHopsSig:vector  ETV
vector 318320  Network.dyn_peer[160]  lookupTimeSig:vector  ETV
vector 318323  Network.dyn_peer[161]  lookupHopsSig:vector  ETV
vector 318322  Network.dyn_peer[161]  lookupTimeSig:vector  ETV
vector 318327  Network.dyn_peer[163]  lookupHopsSig:vector  ETV
vector 318326  Network.dyn_peer[163]  lookupTimeSig:vector  ETV
vector 318329  Network.dyn_peer[164]  lookupHopsSig:vector  ETV
vector 318328  Network.dyn_peer[164]  lookupTimeSig:vector  ETV
vector 318331  Network.dyn_peer[165]  lookupHopsSig:vector  ETV
vector 318330  Network.dyn_peer[165]  lookupTimeSig:vector  ETV
vector 318325  Network.dyn_peer[162]  lookupHopsSig:vector  ETV
vector 318324  Network.dyn_peer[162]  lookupTimeSig:vector  ETV
vector 318335  Network.dyn_peer[167]  lookupHopsSig:vector  ETV
vector 318334  Network.dyn_peer[167]  lookupTimeSig:vector  ETV
vector 318337  Network.dyn_peer[168]  lookupHopsSig:vector  ETV
vector 318336  Network.dyn_peer[168]  lookupTimeSig:vector  ETV
vector 318333  Network.dyn_peer[166]  lookupHopsSig:vector  ETV
vector 318332  Network.dyn_peer[166]  lookupTimeSig:vector  ETV
vector 318339  Network.dyn_peer[169]  lookupHopsSig:vector  ETV
vector 318338  Network.dyn_peer[169]  lookupTimeSig:vector  ETV
vector 318343  Network.dyn_peer[171]  lookupHopsSig:vector  ETV
vector 318342  Network.dyn_peer[171]  lookupTimeSig:vector  ETV
vector 318341  Network.dyn_peer[170]  lookupHopsSig:vector  ETV
vector 318340  Network.dyn_peer[170]  lookupTimeSig:vector  ETV
vector 318345  Network.dyn_peer[172]  lookupHopsSig:vector  ETV
vector 318344  Network.dyn_peer[172]  lookupTimeSig:vector  ETV
vector 318349  Network.dyn_peer[174]  lookupHopsSig:vector  ETV
vector 318348  Network.dyn_peer[174]  lookupTimeSig:vector  ETV
vector 318347  Network.dyn_peer[173]  lookupHopsSig:vector  ETV
vector 318346  Network.dyn_peer[173]  lookupTimeSig:vector  ETV
vector 318351  Network.dyn_peer[175]  lookupHopsSig:vector  ETV
vector 318350  Network.dyn_peer[175]  lookupTimeSig:vector  ETV
vector 318353  Network.dyn_peer[176]  lookupHopsSig:vector  ETV
vector 318352  Network.dyn_peer[176]  lookupTimeSig:vector  ETV
vector 318361  Network.dyn_peer[180]  lookupHopsSig:vector  ETV
vector 318360  Network.dyn_peer[180]  lookupTimeSig:vector  ETV
vector 318357  Network.dyn_peer[178]  lookupHopsSig:vector  ETV
vector 318356  Network.dyn_peer[178]  lookupTimeSig:vector  ETV
vector 318355  Network.dyn_peer[177]  lookupHopsSig:vector  ETV
vector 318354  Network.dyn_peer[177]  lookupTimeSig:vector  ETV
vector 318363  Network.dyn_peer[181]  lookupHopsSig:vector  ETV
vector 318362  Network.dyn_peer[181]  lookupTimeSig:vector  ETV
vector 318359  Network.dyn_peer[179]  lookupHopsSig:vector  ETV
vector 318358  Network.dyn_peer[179]  lookupTimeSig:vector  ETV
vector 318367  Network.dyn_peer[183]  lookupHopsSig:vector  ETV
vector 318366  Network.dyn_peer[183]  lookupTimeSig:vector  ETV
vector 318365  Network.dyn_peer[182]  lookupHopsSig:vector  ETV
vector 318364  Network.dyn_peer[182]  lookupTimeSig:vector  ETV
vector 318373  Network.dyn_peer[186]  lookupHopsSig:vector  ETV
vector 318372  Network.dyn_peer[186]  lookupTimeSig:vector  ETV
vector 318371  Network.dyn_peer[185]  lookupHopsSig:vector  ETV
vector 318370  Network.dyn_peer[185]  lookupTimeSig:vector  ETV
vector 318375  Network.dyn_peer[187]  lookupHopsSig:vector  ETV
vector 318374  Network.dyn_peer[187]  lookupTimeSig:vector  ETV
vector 318369  Network.dyn_peer[184]  lookupHopsSig:vector  ETV
vector 318368  Network.dyn_peer[184]  lookupTimeSig:vector  ETV
vector 318377  Network.dyn_peer[188]  lookupHopsSig:vector  ETV
vector 318376  Network.dyn_peer[188]  lookupTimeSig:vector  ETV
vector 318381  Network.dyn_peer[190]  lookupHopsSig:vector  ETV
vector 318380  Network.dyn_peer[190]  lookupTimeSig:vector  ETV
vector 318379  Network.dyn_peer[189]  lookupHopsSig:vector  ETV
vector 318378  Network.dyn_peer[189]  lookupTimeSig:vector  ETV
vector 318387  Network.dyn_peer[193]  lookupHopsSig:vector  ETV
vector 318386  Network.dyn_peer[193]  lookupTimeSig:vector  ETV
vector 318383  Network.dyn_peer[191]  lookupHopsSig:vector  ETV
vector 318382  Network.dyn_peer[191]  lookupTimeSig:vector  ETV
vector 318391  Network.dyn_peer[195]  lookupHopsSig:vector  ETV
vector 318390  Network.dyn_peer[195]  lookupTimeSig:vector  ETV
vector 318389  Network.dyn_peer[194]  lookupHopsSig:vector  ETV
vector 318388  Network.dyn_peer[194]  lookupTimeSig:vector  ETV
vector 318393  Network.dyn_peer[196]  lookupHopsSig:vector  ETV
vector 318392  Network.dyn_peer[196]  lookupTimeSig:vector  ETV
vector 318397  Network.dyn_peer[198]  lookupHopsSig:vector  ETV
vector 318396  Network.dyn_peer[198]  lookupTimeSig:vector  ETV
vector 318385  Network.dyn_peer[192]  lookupHopsSig:vector  ETV
vector 318384  Network.dyn_peer[192]  lookupTimeSig:vector  ETV
vector 318395  Network.dyn_peer[197]  lookupHopsSig:vector  ETV
vector 318394  Network.dyn_peer[197]  lookupTimeSig:vector  ETV
vector 318401  Network.dyn_peer[200]  lookupHopsSig:vector  ETV
vector 318400  Network.dyn_peer[200]  lookupTimeSig:vector  ETV
vector 318405  Network.dyn_peer[202]  lookupHopsSig:vector  ETV
vector 318404  Network.dyn_peer[202]  lookupTimeSig:vector  ETV
vector 318403  Network.dyn_peer[201]  lookupHopsSig:vector  ETV
vector 318402  Network.dyn_peer[201]  lookupTimeSig:vector  ETV
vector 318399  Network.dyn_peer[199]  lookupHopsSig:vector  ETV
vector 318398  Network.dyn_peer[199]  lookupTimeSig:vector  ETV
vector 318409  Network.dyn_peer[204]  lookupHopsSig:vector  ETV
vector 318408  Network.dyn_peer[204]  lookupTimeSig:vector  ETV
vector 318407  Network.dyn_peer[203]  lookupHopsSig:vector  ETV
vector 318406  Network.dyn_peer[203]  lookupTimeSig:vector  ETV
vector 318413  Network.dyn_peer[206]  lookupHopsSig:vector  ETV
vector 318412  Network.dyn_peer[206]  lookupTimeSig:vector  ETV
vector 318411  Network.dyn_peer[205]  lookupHopsSig:vector  ETV
vector 318410  Network.dyn_peer[205]  lookupTimeSig:vector  ETV
vector 318417  Network.dyn_peer[208]  lookupHopsSig:vector  ETV
vector 318416  Network.dyn_peer[208]  lookupTimeSig:vector  ETV
vector 318415  Network.dyn_peer[207]  lookupHopsSig:vector  ETV
vector 318414  Network.dyn_peer[207]  lookupTimeSig:vector  ETV
vector 318419  Network.dyn_peer[209]  lookupHopsSig:vector  ETV
vector 318418  Network.dyn_peer[209]  lookupTimeSig:vector  ETV
vector 318425  Network.dyn_peer[212]  lookupHopsSig:vector  ETV
vector 318424  Network.dyn_peer[212]  lookupTimeSig:vector  ETV
vector 318423  Network.dyn_peer[211]  lookupHopsSig:vector  ETV
vector 318422  Network.dyn_peer[211]  lookupTimeSig:vector  ETV
vector 318427  Network.dyn_peer[213]  lookupHopsSig:vector  ETV
vector 318426  Network.dyn_peer[213]  lookupTimeSig:vector  ETV
vector 318421  Network.dyn_peer[210]  lookupHopsSig:vector  ETV
vector 318420  Network.dyn_peer[210]  lookupTimeSig:vector  ETV
vector 318429  Network.dyn_peer[214]  lookupHopsSig:vector  ETV
vector 318428  Network.dyn_peer[214]  lookupTimeSig:vector  ETV
vector 318433  Network.dyn_peer[216]  lookupHopsSig:vector  ETV
vector 318432  Network.dyn_peer[216]  lookupTimeSig:vector  ETV
vector 318437  Network.dyn_peer[218]  lookupHopsSig:vector  ETV
vector 318436  Network.dyn_peer[218]  lookupTimeSig:vector  ETV
vector 318431  Network.dyn_peer[215]  lookupHopsSig:vector  ETV
vector 318430  Network.dyn_peer[215]  lookupTimeSig:vector  ETV
vector 318441  Network.dyn_peer[220]  lookupHopsSig:vector  ETV
vector 318440  Network.dyn_peer[220]  lookupTimeSig:vector  ETV
vector 318435  Network.dyn_peer[217]  lookupHopsSig:vector  ETV
vector 318434  Network.dyn_peer[217]  lookupTimeSig:vector  ETV
vector 318443  Network.dyn_peer[221]  lookupHopsSig:vector  ETV
vector 318442  Network.dyn_peer[221]  lookupTimeSig:vector  ETV
vector 318445  Network.dyn_peer[222]  lookupHopsSig:vector  ETV
vector 318444  Network.dyn_peer[222]  lookupTimeSig:vector  ETV
vector 318439  Network.dyn_peer[219]  lookupHopsSig:vector  ETV
vector 318438  Network.dyn_peer[219]  lookupTimeSig:vector  ETV
vector 318451  Network.dyn_peer[225]  lookupHopsSig:vector  ETV
vector 318450  Network.dyn_peer[225]  lookupTimeSig:vector  ETV
vector 318449  Network.dyn_peer[224]  lookupHopsSig:vector  ETV
vector 318448  Network.dyn_peer[224]  lookupTimeSig:vector  ETV
vector 318447  Network.dyn_peer[223]  lookupHopsSig:vector  ETV
vector 318446  Network.dyn_peer[223]  lookupTimeSig:vector  ETV
vector 318459  Network.dyn_peer[229]  lookupHopsSig:vector  ETV
vector 318458  Network.dyn_peer[229]  lookupTimeSig:vector  ETV
vector 318457  Network.dyn_peer[228]  lookupHopsSig:vector  ETV
vector 318456  Network.dyn_peer[228]  lookupTimeSig:vector  ETV
vector 318455  Network.dyn_peer[227]  lookupHopsSig:vector  ETV
vector 318454  Network.dyn_peer[227]  lookupTimeSig:vector  ETV
vector 318453  Network.dyn_peer[226]  lookupHopsSig:vector  ETV
vector 318452  Network.dyn_peer[226]  lookupTimeSig:vector  ETV
vector 318463  Network.dyn_peer[231]  lookupHopsSig:vector  ETV
vector 318462  Network.dyn_peer[231]  lookupTimeSig:vector  ETV
vector 318461  Network.dyn_peer[230]  lookupHopsSig:vector  ETV
vector 318460  Network.dyn_peer[230]  lookupTimeSig:vector  ETV