version 2
run Stability-10-20130521-22:20:34-23591
attr configname Stability
attr datetime 20130521-22:20:34
attr experiment Stability
attr inifile omnetpp.ini
attr iterationvars $0=8
attr iterationvars2 "$0=8, $repetition=10"
attr measurement $0=8
attr network Network
attr processid 23591
attr repetition 10
attr replication #10
attr resultdir results
attr runnumber 10
attr seedset 10

vector 20001  Network.dyn_peer[0]  lookupHopsSig:vector  ETV
vector 20000  Network.dyn_peer[0]  lookupTimeSig:vector  ETV
vector 20003  Network.dyn_peer[1]  lookupHopsSig:vector  ETV
vector 20002  Network.dyn_peer[1]  lookupTimeSig:vector  ETV
vector 20005  Network.dyn_peer[2]  lookupHopsSig:vector  ETV
vector 20004  Network.dyn_peer[2]  lookupTimeSig:vector  ETV
vector 20007  Network.dyn_peer[3]  lookupHopsSig:vector  ETV
vector 20006  Network.dyn_peer[3]  lookupTimeSig:vector  ETV
vector 20009  Network.dyn_peer[4]  lookupHopsSig:vector  ETV
vector 20008  Network.dyn_peer[4]  lookupTimeSig:vector  ETV
vector 20011  Network.dyn_peer[5]  lookupHopsSig:vector  ETV
vector 20010  Network.dyn_peer[5]  lookupTimeSig:vector  ETV
vector 20013  Network.dyn_peer[6]  lookupHopsSig:vector  ETV
vector 20012  Network.dyn_peer[6]  lookupTimeSig:vector  ETV
vector 20015  Network.dyn_peer[7]  lookupHopsSig:vector  ETV
vector 20014  Network.dyn_peer[7]  lookupTimeSig:vector  ETV
vector 20017  Network.dyn_peer[8]  lookupHopsSig:vector  ETV
vector 20016  Network.dyn_peer[8]  lookupTimeSig:vector  ETV
vector 20019  Network.dyn_peer[9]  lookupHopsSig:vector  ETV
vector 20018  Network.dyn_peer[9]  lookupTimeSig:vector  ETV
vector 20021  Network.dyn_peer[10]  lookupHopsSig:vector  ETV
vector 20020  Network.dyn_peer[10]  lookupTimeSig:vector  ETV
vector 20023  Network.dyn_peer[11]  lookupHopsSig:vector  ETV
vector 20022  Network.dyn_peer[11]  lookupTimeSig:vector  ETV
vector 20025  Network.dyn_peer[12]  lookupHopsSig:vector  ETV
vector 20024  Network.dyn_peer[12]  lookupTimeSig:vector  ETV
vector 20027  Network.dyn_peer[13]  lookupHopsSig:vector  ETV
vector 20026  Network.dyn_peer[13]  lookupTimeSig:vector  ETV
vector 20029  Network.dyn_peer[14]  lookupHopsSig:vector  ETV
vector 20028  Network.dyn_peer[14]  lookupTimeSig:vector  ETV
vector 20031  Network.dyn_peer[15]  lookupHopsSig:vector  ETV
vector 20030  Network.dyn_peer[15]  lookupTimeSig:vector  ETV
vector 20033  Network.dyn_peer[16]  lookupHopsSig:vector  ETV
vector 20032  Network.dyn_peer[16]  lookupTimeSig:vector  ETV
vector 20035  Network.dyn_peer[17]  lookupHopsSig:vector  ETV
vector 20034  Network.dyn_peer[17]  lookupTimeSig:vector  ETV
vector 20037  Network.dyn_peer[18]  lookupHopsSig:vector  ETV
vector 20036  Network.dyn_peer[18]  lookupTimeSig:vector  ETV
vector 20039  Network.dyn_peer[19]  lookupHopsSig:vector  ETV
vector 20038  Network.dyn_peer[19]  lookupTimeSig:vector  ETV
vector 20041  Network.dyn_peer[20]  lookupHopsSig:vector  ETV
vector 20040  Network.dyn_peer[20]  lookupTimeSig:vector  ETV
vector 20043  Network.dyn_peer[21]  lookupHopsSig:vector  ETV
vector 20042  Network.dyn_peer[21]  lookupTimeSig:vector  ETV
vector 20045  Network.dyn_peer[22]  lookupHopsSig:vector  ETV
vector 20044  Network.dyn_peer[22]  lookupTimeSig:vector  ETV
vector 20047  Network.dyn_peer[23]  lookupHopsSig:vector  ETV
vector 20046  Network.dyn_peer[23]  lookupTimeSig:vector  ETV
vector 20049  Network.dyn_peer[24]  lookupHopsSig:vector  ETV
vector 20048  Network.dyn_peer[24]  lookupTimeSig:vector  ETV
vector 20051  Network.dyn_peer[25]  lookupHopsSig:vector  ETV
vector 20050  Network.dyn_peer[25]  lookupTimeSig:vector  ETV
vector 20053  Network.dyn_peer[26]  lookupHopsSig:vector  ETV
vector 20052  Network.dyn_peer[26]  lookupTimeSig:vector  ETV
vector 20055  Network.dyn_peer[27]  lookupHopsSig:vector  ETV
vector 20054  Network.dyn_peer[27]  lookupTimeSig:vector  ETV
vector 20057  Network.dyn_peer[28]  lookupHopsSig:vector  ETV
vector 20056  Network.dyn_peer[28]  lookupTimeSig:vector  ETV
vector 20059  Network.dyn_peer[29]  lookupHopsSig:vector  ETV
vector 20058  Network.dyn_peer[29]  lookupTimeSig:vector  ETV
vector 20061  Network.dyn_peer[30]  lookupHopsSig:vector  ETV
vector 20060  Network.dyn_peer[30]  lookupTimeSig:vector  ETV
vector 20063  Network.dyn_peer[31]  lookupHopsSig:vector  ETV
vector 20062  Network.dyn_peer[31]  lookupTimeSig:vector  ETV
vector 20065  Network.dyn_peer[32]  lookupHopsSig:vector  ETV
vector 20064  Network.dyn_peer[32]  lookupTimeSig:vector  ETV
vector 20067  Network.dyn_peer[33]  lookupHopsSig:vector  ETV
vector 20066  Network.dyn_peer[33]  lookupTimeSig:vector  ETV
vector 20069  Network.dyn_peer[34]  lookupHopsSig:vector  ETV
vector 20068  Network.dyn_peer[34]  lookupTimeSig:vector  ETV
vector 20071  Network.dyn_peer[35]  lookupHopsSig:vector  ETV
vector 20070  Network.dyn_peer[35]  lookupTimeSig:vector  ETV
vector 20073  Network.dyn_peer[36]  lookupHopsSig:vector  ETV
vector 20072  Network.dyn_peer[36]  lookupTimeSig:vector  ETV
vector 20075  Network.dyn_peer[37]  lookupHopsSig:vector  ETV
vector 20074  Network.dyn_peer[37]  lookupTimeSig:vector  ETV
vector 20077  Network.dyn_peer[38]  lookupHopsSig:vector  ETV
vector 20076  Network.dyn_peer[38]  lookupTimeSig:vector  ETV
vector 20079  Network.dyn_peer[39]  lookupHopsSig:vector  ETV
vector 20078  Network.dyn_peer[39]  lookupTimeSig:vector  ETV
vector 20081  Network.dyn_peer[40]  lookupHopsSig:vector  ETV
vector 20080  Network.dyn_peer[40]  lookupTimeSig:vector  ETV
vector 20083  Network.dyn_peer[41]  lookupHopsSig:vector  ETV
vector 20082  Network.dyn_peer[41]  lookupTimeSig:vector  ETV
vector 20085  Network.dyn_peer[42]  lookupHopsSig:vector  ETV
vector 20084  Network.dyn_peer[42]  lookupTimeSig:vector  ETV
vector 20087  Network.dyn_peer[43]  lookupHopsSig:vector  ETV
vector 20086  Network.dyn_peer[43]  lookupTimeSig:vector  ETV
vector 20089  Network.dyn_peer[44]  lookupHopsSig:vector  ETV
vector 20088  Network.dyn_peer[44]  lookupTimeSig:vector  ETV
vector 20091  Network.dyn_peer[45]  lookupHopsSig:vector  ETV
vector 20090  Network.dyn_peer[45]  lookupTimeSig:vector  ETV
vector 20093  Network.dyn_peer[46]  lookupHopsSig:vector  ETV
vector 20092  Network.dyn_peer[46]  lookupTimeSig:vector  ETV
vector 20095  Network.dyn_peer[47]  lookupHopsSig:vector  ETV
vector 20094  Network.dyn_peer[47]  lookupTimeSig:vector  ETV
vector 20097  Network.dyn_peer[48]  lookupHopsSig:vector  ETV
vector 20096  Network.dyn_peer[48]  lookupTimeSig:vector  ETV
vector 20099  Network.dyn_peer[49]  lookupHopsSig:vector  ETV
vector 20098  Network.dyn_peer[49]  lookupTimeSig:vector  ETV
vector 20101  Network.dyn_peer[50]  lookupHopsSig:vector  ETV
vector 20100  Network.dyn_peer[50]  lookupTimeSig:vector  ETV
vector 20103  Network.dyn_peer[51]  lookupHopsSig:vector  ETV
vector 20102  Network.dyn_peer[51]  lookupTimeSig:vector  ETV
vector 20105  Network.dyn_peer[52]  lookupHopsSig:vector  ETV
vector 20104  Network.dyn_peer[52]  lookupTimeSig:vector  ETV
vector 20107  Network.dyn_peer[53]  lookupHopsSig:vector  ETV
vector 20106  Network.dyn_peer[53]  lookupTimeSig:vector  ETV
vector 20109  Network.dyn_peer[54]  lookupHopsSig:vector  ETV
vector 20108  Network.dyn_peer[54]  lookupTimeSig:vector  ETV
vector 20111  Network.dyn_peer[55]  lookupHopsSig:vector  ETV
vector 20110  Network.dyn_peer[55]  lookupTimeSig:vector  ETV
vector 20113  Network.dyn_peer[56]  lookupHopsSig:vector  ETV
vector 20112  Network.dyn_peer[56]  lookupTimeSig:vector  ETV
vector 20115  Network.dyn_peer[57]  lookupHopsSig:vector  ETV
vector 20114  Network.dyn_peer[57]  lookupTimeSig:vector  ETV
vector 20117  Network.dyn_peer[58]  lookupHopsSig:vector  ETV
vector 20116  Network.dyn_peer[58]  lookupTimeSig:vector  ETV
vector 20119  Network.dyn_peer[59]  lookupHopsSig:vector  ETV
vector 20118  Network.dyn_peer[59]  lookupTimeSig:vector  ETV
vector 20121  Network.dyn_peer[60]  lookupHopsSig:vector  ETV
vector 20120  Network.dyn_peer[60]  lookupTimeSig:vector  ETV
vector 20123  Network.dyn_peer[61]  lookupHopsSig:vector  ETV
vector 20122  Network.dyn_peer[61]  lookupTimeSig:vector  ETV
vector 20125  Network.dyn_peer[62]  lookupHopsSig:vector  ETV
vector 20124  Network.dyn_peer[62]  lookupTimeSig:vector  ETV
vector 20127  Network.dyn_peer[63]  lookupHopsSig:vector  ETV
vector 20126  Network.dyn_peer[63]  lookupTimeSig:vector  ETV
vector 20129  Network.dyn_peer[64]  lookupHopsSig:vector  ETV
vector 20128  Network.dyn_peer[64]  lookupTimeSig:vector  ETV
vector 20131  Network.dyn_peer[65]  lookupHopsSig:vector  ETV
vector 20130  Network.dyn_peer[65]  lookupTimeSig:vector  ETV
vector 20133  Network.dyn_peer[66]  lookupHopsSig:vector  ETV
vector 20132  Network.dyn_peer[66]  lookupTimeSig:vector  ETV
vector 20135  Network.dyn_peer[67]  lookupHopsSig:vector  ETV
vector 20134  Network.dyn_peer[67]  lookupTimeSig:vector  ETV
vector 20137  Network.dyn_peer[68]  lookupHopsSig:vector  ETV
vector 20136  Network.dyn_peer[68]  lookupTimeSig:vector  ETV
vector 20139  Network.dyn_peer[69]  lookupHopsSig:vector  ETV
vector 20138  Network.dyn_peer[69]  lookupTimeSig:vector  ETV
vector 20141  Network.dyn_peer[70]  lookupHopsSig:vector  ETV
vector 20140  Network.dyn_peer[70]  lookupTimeSig:vector  ETV
vector 20143  Network.dyn_peer[71]  lookupHopsSig:vector  ETV
vector 20142  Network.dyn_peer[71]  lookupTimeSig:vector  ETV
vector 20145  Network.dyn_peer[72]  lookupHopsSig:vector  ETV
vector 20144  Network.dyn_peer[72]  lookupTimeSig:vector  ETV
vector 20147  Network.dyn_peer[73]  lookupHopsSig:vector  ETV
vector 20146  Network.dyn_peer[73]  lookupTimeSig:vector  ETV
vector 20149  Network.dyn_peer[74]  lookupHopsSig:vector  ETV
vector 20148  Network.dyn_peer[74]  lookupTimeSig:vector  ETV
vector 20151  Network.dyn_peer[75]  lookupHopsSig:vector  ETV
vector 20150  Network.dyn_peer[75]  lookupTimeSig:vector  ETV
vector 20153  Network.dyn_peer[76]  lookupHopsSig:vector  ETV
vector 20152  Network.dyn_peer[76]  lookupTimeSig:vector  ETV
vector 20155  Network.dyn_peer[77]  lookupHopsSig:vector  ETV
vector 20154  Network.dyn_peer[77]  lookupTimeSig:vector  ETV
vector 20157  Network.dyn_peer[78]  lookupHopsSig:vector  ETV
vector 20156  Network.dyn_peer[78]  lookupTimeSig:vector  ETV
vector 20159  Network.dyn_peer[79]  lookupHopsSig:vector  ETV
vector 20158  Network.dyn_peer[79]  lookupTimeSig:vector  ETV
vector 20161  Network.dyn_peer[80]  lookupHopsSig:vector  ETV
vector 20160  Network.dyn_peer[80]  lookupTimeSig:vector  ETV
vector 20163  Network.dyn_peer[81]  lookupHopsSig:vector  ETV
vector 20162  Network.dyn_peer[81]  lookupTimeSig:vector  ETV
vector 20165  Network.dyn_peer[82]  lookupHopsSig:vector  ETV
vector 20164  Network.dyn_peer[82]  lookupTimeSig:vector  ETV
vector 20167  Network.dyn_peer[83]  lookupHopsSig:vector  ETV
vector 20166  Network.dyn_peer[83]  lookupTimeSig:vector  ETV
vector 20169  Network.dyn_peer[84]  lookupHopsSig:vector  ETV
vector 20168  Network.dyn_peer[84]  lookupTimeSig:vector  ETV
vector 20171  Network.dyn_peer[85]  lookupHopsSig:vector  ETV
vector 20170  Network.dyn_peer[85]  lookupTimeSig:vector  ETV
vector 20173  Network.dyn_peer[86]  lookupHopsSig:vector  ETV
vector 20172  Network.dyn_peer[86]  lookupTimeSig:vector  ETV
vector 20175  Network.dyn_peer[87]  lookupHopsSig:vector  ETV
vector 20174  Network.dyn_peer[87]  lookupTimeSig:vector  ETV
vector 20177  Network.dyn_peer[88]  lookupHopsSig:vector  ETV
vector 20176  Network.dyn_peer[88]  lookupTimeSig:vector  ETV
vector 20179  Network.dyn_peer[89]  lookupHopsSig:vector  ETV
vector 20178  Network.dyn_peer[89]  lookupTimeSig:vector  ETV
vector 20181  Network.dyn_peer[90]  lookupHopsSig:vector  ETV
vector 20180  Network.dyn_peer[90]  lookupTimeSig:vector  ETV
vector 20183  Network.dyn_peer[91]  lookupHopsSig:vector  ETV
vector 20182  Network.dyn_peer[91]  lookupTimeSig:vector  ETV
vector 20185  Network.dyn_peer[92]  lookupHopsSig:vector  ETV
vector 20184  Network.dyn_peer[92]  lookupTimeSig:vector  ETV
vector 20187  Network.dyn_peer[93]  lookupHopsSig:vector  ETV
vector 20186  Network.dyn_peer[93]  lookupTimeSig:vector  ETV
vector 20189  Network.dyn_peer[94]  lookupHopsSig:vector  ETV
vector 20188  Network.dyn_peer[94]  lookupTimeSig:vector  ETV
vector 20191  Network.dyn_peer[95]  lookupHopsSig:vector  ETV
vector 20190  Network.dyn_peer[95]  lookupTimeSig:vector  ETV
vector 20193  Network.dyn_peer[96]  lookupHopsSig:vector  ETV
vector 20192  Network.dyn_peer[96]  lookupTimeSig:vector  ETV
vector 20195  Network.dyn_peer[97]  lookupHopsSig:vector  ETV
vector 20194  Network.dyn_peer[97]  lookupTimeSig:vector  ETV
vector 20197  Network.dyn_peer[98]  lookupHopsSig:vector  ETV
vector 20196  Network.dyn_peer[98]  lookupTimeSig:vector  ETV
vector 20199  Network.dyn_peer[99]  lookupHopsSig:vector  ETV
vector 20198  Network.dyn_peer[99]  lookupTimeSig:vector  ETV
vector 20201  Network.dyn_peer[100]  lookupHopsSig:vector  ETV
vector 20200  Network.dyn_peer[100]  lookupTimeSig:vector  ETV
vector 20203  Network.dyn_peer[101]  lookupHopsSig:vector  ETV
vector 20202  Network.dyn_peer[101]  lookupTimeSig:vector  ETV
vector 20205  Network.dyn_peer[102]  lookupHopsSig:vector  ETV
vector 20204  Network.dyn_peer[102]  lookupTimeSig:vector  ETV
vector 20207  Network.dyn_peer[103]  lookupHopsSig:vector  ETV
vector 20206  Network.dyn_peer[103]  lookupTimeSig:vector  ETV
vector 20209  Network.dyn_peer[104]  lookupHopsSig:vector  ETV
vector 20208  Network.dyn_peer[104]  lookupTimeSig:vector  ETV
vector 20211  Network.dyn_peer[105]  lookupHopsSig:vector  ETV
vector 20210  Network.dyn_peer[105]  lookupTimeSig:vector  ETV
vector 20213  Network.dyn_peer[106]  lookupHopsSig:vector  ETV
vector 20212  Network.dyn_peer[106]  lookupTimeSig:vector  ETV
vector 20215  Network.dyn_peer[107]  lookupHopsSig:vector  ETV
vector 20214  Network.dyn_peer[107]  lookupTimeSig:vector  ETV
vector 20217  Network.dyn_peer[108]  lookupHopsSig:vector  ETV
vector 20216  Network.dyn_peer[108]  lookupTimeSig:vector  ETV
vector 20219  Network.dyn_peer[109]  lookupHopsSig:vector  ETV
vector 20218  Network.dyn_peer[109]  lookupTimeSig:vector  ETV
vector 20221  Network.dyn_peer[110]  lookupHopsSig:vector  ETV
vector 20220  Network.dyn_peer[110]  lookupTimeSig:vector  ETV
vector 20223  Network.dyn_peer[111]  lookupHopsSig:vector  ETV
vector 20222  Network.dyn_peer[111]  lookupTimeSig:vector  ETV
vector 20225  Network.dyn_peer[112]  lookupHopsSig:vector  ETV
vector 20224  Network.dyn_peer[112]  lookupTimeSig:vector  ETV
vector 20227  Network.dyn_peer[113]  lookupHopsSig:vector  ETV
vector 20226  Network.dyn_peer[113]  lookupTimeSig:vector  ETV
vector 20229  Network.dyn_peer[114]  lookupHopsSig:vector  ETV
vector 20228  Network.dyn_peer[114]  lookupTimeSig:vector  ETV
vector 20231  Network.dyn_peer[115]  lookupHopsSig:vector  ETV
vector 20230  Network.dyn_peer[115]  lookupTimeSig:vector  ETV
vector 20233  Network.dyn_peer[116]  lookupHopsSig:vector  ETV
vector 20232  Network.dyn_peer[116]  lookupTimeSig:vector  ETV
vector 20235  Network.dyn_peer[117]  lookupHopsSig:vector  ETV
vector 20234  Network.dyn_peer[117]  lookupTimeSig:vector  ETV
vector 20237  Network.dyn_peer[118]  lookupHopsSig:vector  ETV
vector 20236  Network.dyn_peer[118]  lookupTimeSig:vector  ETV
vector 20239  Network.dyn_peer[119]  lookupHopsSig:vector  ETV
vector 20238  Network.dyn_peer[119]  lookupTimeSig:vector  ETV
vector 20241  Network.dyn_peer[120]  lookupHopsSig:vector  ETV
vector 20240  Network.dyn_peer[120]  lookupTimeSig:vector  ETV
vector 20243  Network.dyn_peer[121]  lookupHopsSig:vector  ETV
vector 20242  Network.dyn_peer[121]  lookupTimeSig:vector  ETV
vector 20245  Network.dyn_peer[122]  lookupHopsSig:vector  ETV
vector 20244  Network.dyn_peer[122]  lookupTimeSig:vector  ETV
vector 20247  Network.dyn_peer[123]  lookupHopsSig:vector  ETV
vector 20246  Network.dyn_peer[123]  lookupTimeSig:vector  ETV
vector 20249  Network.dyn_peer[124]  lookupHopsSig:vector  ETV
vector 20248  Network.dyn_peer[124]  lookupTimeSig:vector  ETV
vector 20251  Network.dyn_peer[125]  lookupHopsSig:vector  ETV
vector 20250  Network.dyn_peer[125]  lookupTimeSig:vector  ETV
vector 20253  Network.dyn_peer[126]  lookupHopsSig:vector  ETV
vector 20252  Network.dyn_peer[126]  lookupTimeSig:vector  ETV
vector 20255  Network.dyn_peer[127]  lookupHopsSig:vector  ETV
vector 20254  Network.dyn_peer[127]  lookupTimeSig:vector  ETV
vector 20257  Network.dyn_peer[128]  lookupHopsSig:vector  ETV
vector 20256  Network.dyn_peer[128]  lookupTimeSig:vector  ETV
vector 20259  Network.dyn_peer[129]  lookupHopsSig:vector  ETV
vector 20258  Network.dyn_peer[129]  lookupTimeSig:vector  ETV
vector 20261  Network.dyn_peer[130]  lookupHopsSig:vector  ETV
vector 20260  Network.dyn_peer[130]  lookupTimeSig:vector  ETV
vector 20263  Network.dyn_peer[131]  lookupHopsSig:vector  ETV
vector 20262  Network.dyn_peer[131]  lookupTimeSig:vector  ETV
vector 20265  Network.dyn_peer[132]  lookupHopsSig:vector  ETV
vector 20264  Network.dyn_peer[132]  lookupTimeSig:vector  ETV
vector 20267  Network.dyn_peer[133]  lookupHopsSig:vector  ETV
vector 20266  Network.dyn_peer[133]  lookupTimeSig:vector  ETV
vector 20269  Network.dyn_peer[134]  lookupHopsSig:vector  ETV
vector 20268  Network.dyn_peer[134]  lookupTimeSig:vector  ETV
vector 20271  Network.dyn_peer[135]  lookupHopsSig:vector  ETV
vector 20270  Network.dyn_peer[135]  lookupTimeSig:vector  ETV
vector 20273  Network.dyn_peer[136]  lookupHopsSig:vector  ETV
vector 20272  Network.dyn_peer[136]  lookupTimeSig:vector  ETV
vector 20275  Network.dyn_peer[137]  lookupHopsSig:vector  ETV
vector 20274  Network.dyn_peer[137]  lookupTimeSig:vector  ETV
vector 20277  Network.dyn_peer[138]  lookupHopsSig:vector  ETV
vector 20276  Network.dyn_peer[138]  lookupTimeSig:vector  ETV
vector 20279  Network.dyn_peer[139]  lookupHopsSig:vector  ETV
vector 20278  Network.dyn_peer[139]  lookupTimeSig:vector  ETV
vector 20281  Network.dyn_peer[140]  lookupHopsSig:vector  ETV
vector 20280  Network.dyn_peer[140]  lookupTimeSig:vector  ETV
vector 20283  Network.dyn_peer[141]  lookupHopsSig:vector  ETV
vector 20282  Network.dyn_peer[141]  lookupTimeSig:vector  ETV
vector 20285  Network.dyn_peer[142]  lookupHopsSig:vector  ETV
vector 20284  Network.dyn_peer[142]  lookupTimeSig:vector  ETV
vector 20287  Network.dyn_peer[143]  lookupHopsSig:vector  ETV
vector 20286  Network.dyn_peer[143]  lookupTimeSig:vector  ETV
vector 20289  Network.dyn_peer[144]  lookupHopsSig:vector  ETV
vector 20288  Network.dyn_peer[144]  lookupTimeSig:vector  ETV
vector 20291  Network.dyn_peer[145]  lookupHopsSig:vector  ETV
vector 20290  Network.dyn_peer[145]  lookupTimeSig:vector  ETV
vector 20293  Network.dyn_peer[146]  lookupHopsSig:vector  ETV
vector 20292  Network.dyn_peer[146]  lookupTimeSig:vector  ETV
vector 20295  Network.dyn_peer[147]  lookupHopsSig:vector  ETV
vector 20294  Network.dyn_peer[147]  lookupTimeSig:vector  ETV
vector 20297  Network.dyn_peer[148]  lookupHopsSig:vector  ETV
vector 20296  Network.dyn_peer[148]  lookupTimeSig:vector  ETV
vector 20299  Network.dyn_peer[149]  lookupHopsSig:vector  ETV
vector 20298  Network.dyn_peer[149]  lookupTimeSig:vector  ETV
vector 20301  Network.dyn_peer[150]  lookupHopsSig:vector  ETV
vector 20300  Network.dyn_peer[150]  lookupTimeSig:vector  ETV
vector 20303  Network.dyn_peer[151]  lookupHopsSig:vector  ETV
vector 20302  Network.dyn_peer[151]  lookupTimeSig:vector  ETV
vector 20305  Network.dyn_peer[152]  lookupHopsSig:vector  ETV
vector 20304  Network.dyn_peer[152]  lookupTimeSig:vector  ETV
vector 20307  Network.dyn_peer[153]  lookupHopsSig:vector  ETV
vector 20306  Network.dyn_peer[153]  lookupTimeSig:vector  ETV
vector 20309  Network.dyn_peer[154]  lookupHopsSig:vector  ETV
vector 20308  Network.dyn_peer[154]  lookupTimeSig:vector  ETV
vector 20311  Network.dyn_peer[155]  lookupHopsSig:vector  ETV
vector 20310  Network.dyn_peer[155]  lookupTimeSig:vector  ETV
vector 20313  Network.dyn_peer[156]  lookupHopsSig:vector  ETV
vector 20312  Network.dyn_peer[156]  lookupTimeSig:vector  ETV
vector 20315  Network.dyn_peer[157]  lookupHopsSig:vector  ETV
vector 20314  Network.dyn_peer[157]  lookupTimeSig:vector  ETV
vector 20317  Network.dyn_peer[158]  lookupHopsSig:vector  ETV
vector 20316  Network.dyn_peer[158]  lookupTimeSig:vector  ETV
vector 20319  Network.dyn_peer[159]  lookupHopsSig:vector  ETV
vector 20318  Network.dyn_peer[159]  lookupTimeSig:vector  ETV
vector 20321  Network.dyn_peer[160]  lookupHopsSig:vector  ETV
vector 20320  Network.dyn_peer[160]  lookupTimeSig:vector  ETV
vector 20323  Network.dyn_peer[161]  lookupHopsSig:vector  ETV
vector 20322  Network.dyn_peer[161]  lookupTimeSig:vector  ETV
vector 20325  Network.dyn_peer[162]  lookupHopsSig:vector  ETV
vector 20324  Network.dyn_peer[162]  lookupTimeSig:vector  ETV
vector 20327  Network.dyn_peer[163]  lookupHopsSig:vector  ETV
vector 20326  Network.dyn_peer[163]  lookupTimeSig:vector  ETV
vector 20329  Network.dyn_peer[164]  lookupHopsSig:vector  ETV
vector 20328  Network.dyn_peer[164]  lookupTimeSig:vector  ETV
vector 20331  Network.dyn_peer[165]  lookupHopsSig:vector  ETV
vector 20330  Network.dyn_peer[165]  lookupTimeSig:vector  ETV
vector 20333  Network.dyn_peer[166]  lookupHopsSig:vector  ETV
vector 20332  Network.dyn_peer[166]  lookupTimeSig:vector  ETV
vector 20335  Network.dyn_peer[167]  lookupHopsSig:vector  ETV
vector 20334  Network.dyn_peer[167]  lookupTimeSig:vector  ETV
vector 20337  Network.dyn_peer[168]  lookupHopsSig:vector  ETV
vector 20336  Network.dyn_peer[168]  lookupTimeSig:vector  ETV
vector 20339  Network.dyn_peer[169]  lookupHopsSig:vector  ETV
vector 20338  Network.dyn_peer[169]  lookupTimeSig:vector  ETV
vector 20341  Network.dyn_peer[170]  lookupHopsSig:vector  ETV
vector 20340  Network.dyn_peer[170]  lookupTimeSig:vector  ETV
vector 20343  Network.dyn_peer[171]  lookupHopsSig:vector  ETV
vector 20342  Network.dyn_peer[171]  lookupTimeSig:vector  ETV
vector 20345  Network.dyn_peer[172]  lookupHopsSig:vector  ETV
vector 20344  Network.dyn_peer[172]  lookupTimeSig:vector  ETV
vector 20347  Network.dyn_peer[173]  lookupHopsSig:vector  ETV
vector 20346  Network.dyn_peer[173]  lookupTimeSig:vector  ETV
vector 20349  Network.dyn_peer[174]  lookupHopsSig:vector  ETV
vector 20348  Network.dyn_peer[174]  lookupTimeSig:vector  ETV
vector 20351  Network.dyn_peer[175]  lookupHopsSig:vector  ETV
vector 20350  Network.dyn_peer[175]  lookupTimeSig:vector  ETV
vector 20353  Network.dyn_peer[176]  lookupHopsSig:vector  ETV
vector 20352  Network.dyn_peer[176]  lookupTimeSig:vector  ETV
vector 20355  Network.dyn_peer[177]  lookupHopsSig:vector  ETV
vector 20354  Network.dyn_peer[177]  lookupTimeSig:vector  ETV
vector 20357  Network.dyn_peer[178]  lookupHopsSig:vector  ETV
vector 20356  Network.dyn_peer[178]  lookupTimeSig:vector  ETV
vector 20359  Network.dyn_peer[179]  lookupHopsSig:vector  ETV
vector 20358  Network.dyn_peer[179]  lookupTimeSig:vector  ETV
vector 20361  Network.dyn_peer[180]  lookupHopsSig:vector  ETV
vector 20360  Network.dyn_peer[180]  lookupTimeSig:vector  ETV
vector 20363  Network.dyn_peer[181]  lookupHopsSig:vector  ETV
vector 20362  Network.dyn_peer[181]  lookupTimeSig:vector  ETV
vector 20365  Network.dyn_peer[182]  lookupHopsSig:vector  ETV
vector 20364  Network.dyn_peer[182]  lookupTimeSig:vector  ETV
vector 20367  Network.dyn_peer[183]  lookupHopsSig:vector  ETV
vector 20366  Network.dyn_peer[183]  lookupTimeSig:vector  ETV
vector 20369  Network.dyn_peer[184]  lookupHopsSig:vector  ETV
vector 20368  Network.dyn_peer[184]  lookupTimeSig:vector  ETV
vector 20371  Network.dyn_peer[185]  lookupHopsSig:vector  ETV
vector 20370  Network.dyn_peer[185]  lookupTimeSig:vector  ETV
vector 20373  Network.dyn_peer[186]  lookupHopsSig:vector  ETV
vector 20372  Network.dyn_peer[186]  lookupTimeSig:vector  ETV
vector 20375  Network.dyn_peer[187]  lookupHopsSig:vector  ETV
vector 20374  Network.dyn_peer[187]  lookupTimeSig:vector  ETV
vector 20377  Network.dyn_peer[188]  lookupHopsSig:vector  ETV
vector 20376  Network.dyn_peer[188]  lookupTimeSig:vector  ETV
vector 20379  Network.dyn_peer[189]  lookupHopsSig:vector  ETV
vector 20378  Network.dyn_peer[189]  lookupTimeSig:vector  ETV
vector 20381  Network.dyn_peer[190]  lookupHopsSig:vector  ETV
vector 20380  Network.dyn_peer[190]  lookupTimeSig:vector  ETV
vector 20383  Network.dyn_peer[191]  lookupHopsSig:vector  ETV
vector 20382  Network.dyn_peer[191]  lookupTimeSig:vector  ETV
vector 20385  Network.dyn_peer[192]  lookupHopsSig:vector  ETV
vector 20384  Network.dyn_peer[192]  lookupTimeSig:vector  ETV
vector 20387  Network.dyn_peer[193]  lookupHopsSig:vector  ETV
vector 20386  Network.dyn_peer[193]  lookupTimeSig:vector  ETV
vector 20389  Network.dyn_peer[194]  lookupHopsSig:vector  ETV
vector 20388  Network.dyn_peer[194]  lookupTimeSig:vector  ETV
vector 20391  Network.dyn_peer[195]  lookupHopsSig:vector  ETV
vector 20390  Network.dyn_peer[195]  lookupTimeSig:vector  ETV
vector 20393  Network.dyn_peer[196]  lookupHopsSig:vector  ETV
vector 20392  Network.dyn_peer[196]  lookupTimeSig:vector  ETV
vector 20395  Network.dyn_peer[197]  lookupHopsSig:vector  ETV
vector 20394  Network.dyn_peer[197]  lookupTimeSig:vector  ETV
vector 20397  Network.dyn_peer[198]  lookupHopsSig:vector  ETV
vector 20396  Network.dyn_peer[198]  lookupTimeSig:vector  ETV
vector 20399  Network.dyn_peer[199]  lookupHopsSig:vector  ETV
vector 20398  Network.dyn_peer[199]  lookupTimeSig:vector  ETV
vector 20401  Network.dyn_peer[200]  lookupHopsSig:vector  ETV
vector 20400  Network.dyn_peer[200]  lookupTimeSig:vector  ETV
vector 20403  Network.dyn_peer[201]  lookupHopsSig:vector  ETV
vector 20402  Network.dyn_peer[201]  lookupTimeSig:vector  ETV
vector 20405  Network.dyn_peer[202]  lookupHopsSig:vector  ETV
vector 20404  Network.dyn_peer[202]  lookupTimeSig:vector  ETV
vector 20407  Network.dyn_peer[203]  lookupHopsSig:vector  ETV
vector 20406  Network.dyn_peer[203]  lookupTimeSig:vector  ETV
vector 20409  Network.dyn_peer[204]  lookupHopsSig:vector  ETV
vector 20408  Network.dyn_peer[204]  lookupTimeSig:vector  ETV
vector 20411  Network.dyn_peer[205]  lookupHopsSig:vector  ETV
vector 20410  Network.dyn_peer[205]  lookupTimeSig:vector  ETV
vector 20413  Network.dyn_peer[206]  lookupHopsSig:vector  ETV
vector 20412  Network.dyn_peer[206]  lookupTimeSig:vector  ETV
vector 20415  Network.dyn_peer[207]  lookupHopsSig:vector  ETV
vector 20414  Network.dyn_peer[207]  lookupTimeSig:vector  ETV
vector 20417  Network.dyn_peer[208]  lookupHopsSig:vector  ETV
vector 20416  Network.dyn_peer[208]  lookupTimeSig:vector  ETV
vector 20419  Network.dyn_peer[209]  lookupHopsSig:vector  ETV
vector 20418  Network.dyn_peer[209]  lookupTimeSig:vector  ETV
vector 20421  Network.dyn_peer[210]  lookupHopsSig:vector  ETV
vector 20420  Network.dyn_peer[210]  lookupTimeSig:vector  ETV
vector 20423  Network.dyn_peer[211]  lookupHopsSig:vector  ETV
vector 20422  Network.dyn_peer[211]  lookupTimeSig:vector  ETV
vector 20425  Network.dyn_peer[212]  lookupHopsSig:vector  ETV
vector 20424  Network.dyn_peer[212]  lookupTimeSig:vector  ETV
vector 20427  Network.dyn_peer[213]  lookupHopsSig:vector  ETV
vector 20426  Network.dyn_peer[213]  lookupTimeSig:vector  ETV
vector 20429  Network.dyn_peer[214]  lookupHopsSig:vector  ETV
vector 20428  Network.dyn_peer[214]  lookupTimeSig:vector  ETV
vector 20431  Network.dyn_peer[215]  lookupHopsSig:vector  ETV
vector 20430  Network.dyn_peer[215]  lookupTimeSig:vector  ETV
vector 20433  Network.dyn_peer[216]  lookupHopsSig:vector  ETV
vector 20432  Network.dyn_peer[216]  lookupTimeSig:vector  ETV
vector 20435  Network.dyn_peer[217]  lookupHopsSig:vector  ETV
vector 20434  Network.dyn_peer[217]  lookupTimeSig:vector  ETV
vector 20437  Network.dyn_peer[218]  lookupHopsSig:vector  ETV
vector 20436  Network.dyn_peer[218]  lookupTimeSig:vector  ETV
vector 20439  Network.dyn_peer[219]  lookupHopsSig:vector  ETV
vector 20438  Network.dyn_peer[219]  lookupTimeSig:vector  ETV
vector 20441  Network.dyn_peer[220]  lookupHopsSig:vector  ETV
vector 20440  Network.dyn_peer[220]  lookupTimeSig:vector  ETV
vector 20443  Network.dyn_peer[221]  lookupHopsSig:vector  ETV
vector 20442  Network.dyn_peer[221]  lookupTimeSig:vector  ETV
vector 20445  Network.dyn_peer[222]  lookupHopsSig:vector  ETV
vector 20444  Network.dyn_peer[222]  lookupTimeSig:vector  ETV
vector 20447  Network.dyn_peer[223]  lookupHopsSig:vector  ETV
vector 20446  Network.dyn_peer[223]  lookupTimeSig:vector  ETV
vector 20449  Network.dyn_peer[224]  lookupHopsSig:vector  ETV
vector 20448  Network.dyn_peer[224]  lookupTimeSig:vector  ETV
vector 20451  Network.dyn_peer[225]  lookupHopsSig:vector  ETV
vector 20450  Network.dyn_peer[225]  lookupTimeSig:vector  ETV
vector 20453  Network.dyn_peer[226]  lookupHopsSig:vector  ETV
vector 20452  Network.dyn_peer[226]  lookupTimeSig:vector  ETV
vector 20455  Network.dyn_peer[227]  lookupHopsSig:vector  ETV
vector 20454  Network.dyn_peer[227]  lookupTimeSig:vector  ETV
vector 20457  Network.dyn_peer[228]  lookupHopsSig:vector  ETV
vector 20456  Network.dyn_peer[228]  lookupTimeSig:vector  ETV
vector 20459  Network.dyn_peer[229]  lookupHopsSig:vector  ETV
vector 20458  Network.dyn_peer[229]  lookupTimeSig:vector  ETV
vector 20461  Network.dyn_peer[230]  lookupHopsSig:vector  ETV
vector 20460  Network.dyn_peer[230]  lookupTimeSig:vector  ETV
vector 20463  Network.dyn_peer[231]  lookupHopsSig:vector  ETV
vector 20462  Network.dyn_peer[231]  lookupTimeSig:vector  ETV
vector 20465  Network.dyn_peer[232]  lookupHopsSig:vector  ETV
vector 20464  Network.dyn_peer[232]  lookupTimeSig:vector  ETV
vector 20467  Network.dyn_peer[233]  lookupHopsSig:vector  ETV
vector 20466  Network.dyn_peer[233]  lookupTimeSig:vector  ETV
vector 20469  Network.dyn_peer[234]  lookupHopsSig:vector  ETV
vector 20468  Network.dyn_peer[234]  lookupTimeSig:vector  ETV
vector 20471  Network.dyn_peer[235]  lookupHopsSig:vector  ETV
vector 20470  Network.dyn_peer[235]  lookupTimeSig:vector  ETV
vector 20473  Network.dyn_peer[236]  lookupHopsSig:vector  ETV