file 899517 1369168734                                          
version 2
run Stability-174-20130521-22:38:48-23591
attr configname Stability
attr datetime 20130521-22:38:48
attr experiment Stability
attr inifile omnetpp.ini
attr iterationvars $0=0.25
attr iterationvars2 "$0=0.25, $repetition=24"
attr measurement $0=0.25
attr network Network
attr processid 23591
attr repetition 24
attr replication #24
attr resultdir results
attr runnumber 174
attr seedset 174

vector 348001  Network.dyn_peer[0]  lookupHopsSig:vector  ETV
vector 348000  Network.dyn_peer[0]  lookupTimeSig:vector  ETV
vector 348005  Network.dyn_peer[2]  lookupHopsSig:vector  ETV
vector 348004  Network.dyn_peer[2]  lookupTimeSig:vector  ETV
vector 348003  Network.dyn_peer[1]  lookupHopsSig:vector  ETV
vector 348002  Network.dyn_peer[1]  lookupTimeSig:vector  ETV
vector 348007  Network.dyn_peer[3]  lookupHopsSig:vector  ETV
vector 348006  Network.dyn_peer[3]  lookupTimeSig:vector  ETV
vector 348009  Network.dyn_peer[4]  lookupHopsSig:vector  ETV
vector 348008  Network.dyn_peer[4]  lookupTimeSig:vector  ETV
vector 348011  Network.dyn_peer[5]  lookupHopsSig:vector  ETV
vector 348010  Network.dyn_peer[5]  lookupTimeSig:vector  ETV
vector 348013  Network.dyn_peer[6]  lookupHopsSig:vector  ETV
vector 348012  Network.dyn_peer[6]  lookupTimeSig:vector  ETV
vector 348015  Network.dyn_peer[7]  lookupHopsSig:vector  ETV
vector 348014  Network.dyn_peer[7]  lookupTimeSig:vector  ETV
vector 348017  Network.dyn_peer[8]  lookupHopsSig:vector  ETV
vector 348016  Network.dyn_peer[8]  lookupTimeSig:vector  ETV
vector 348019  Network.dyn_peer[9]  lookupHopsSig:vector  ETV
vector 348018  Network.dyn_peer[9]  lookupTimeSig:vector  ETV
vector 348021  Network.dyn_peer[10]  lookupHopsSig:vector  ETV
vector 348020  Network.dyn_peer[10]  lookupTimeSig:vector  ETV
vector 348023  Network.dyn_peer[11]  lookupHopsSig:vector  ETV
vector 348022  Network.dyn_peer[11]  lookupTimeSig:vector  ETV
vector 348025  Network.dyn_peer[12]  lookupHopsSig:vector  ETV
vector 348024  Network.dyn_peer[12]  lookupTimeSig:vector  ETV
vector 348029  Network.dyn_peer[14]  lookupHopsSig:vector  ETV
vector 348028  Network.dyn_peer[14]  lookupTimeSig:vector  ETV
vector 348027  Network.dyn_peer[13]  lookupHopsSig:vector  ETV
vector 348026  Network.dyn_peer[13]  lookupTimeSig:vector  ETV
vector 348031  Network.dyn_peer[15]  lookupHopsSig:vector  ETV
vector 348030  Network.dyn_peer[15]  lookupTimeSig:vector  ETV
vector 348033  Network.dyn_peer[16]  lookupHopsSig:vector  ETV
vector 348032  Network.dyn_peer[16]  lookupTimeSig:vector  ETV
vector 348035  Network.dyn_peer[17]  lookupHopsSig:vector  ETV
vector 348034  Network.dyn_peer[17]  lookupTimeSig:vector  ETV
vector 348037  Network.dyn_peer[18]  lookupHopsSig:vector  ETV
vector 348036  Network.dyn_peer[18]  lookupTimeSig:vector  ETV
vector 348039  Network.dyn_peer[19]  lookupHopsSig:vector  ETV
vector 348038  Network.dyn_peer[19]  lookupTimeSig:vector  ETV
vector 348041  Network.dyn_peer[20]  lookupHopsSig:vector  ETV
vector 348040  Network.dyn_peer[20]  lookupTimeSig:vector  ETV
vector 348043  Network.dyn_peer[21]  lookupHopsSig:vector  ETV
vector 348042  Network.dyn_peer[21]  lookupTimeSig:vector  ETV
vector 348045  Network.dyn_peer[22]  lookupHopsSig:vector  ETV
vector 348044  Network.dyn_peer[22]  lookupTimeSig:vector  ETV
vector 348047  Network.dyn_peer[23]  lookupHopsSig:vector  ETV
vector 348046  Network.dyn_peer[23]  lookupTimeSig:vector  ETV
vector 348049  Network.dyn_peer[24]  lookupHopsSig:vector  ETV
vector 348048  Network.dyn_peer[24]  lookupTimeSig:vector  ETV
vector 348051  Network.dyn_peer[25]  lookupHopsSig:vector  ETV
vector 348050  Network.dyn_peer[25]  lookupTimeSig:vector  ETV
vector 348053  Network.dyn_peer[26]  lookupHopsSig:vector  ETV
vector 348052  Network.dyn_peer[26]  lookupTimeSig:vector  ETV
vector 348055  Network.dyn_peer[27]  lookupHopsSig:vector  ETV
vector 348054  Network.dyn_peer[27]  lookupTimeSig:vector  ETV
vector 348057  Network.dyn_peer[28]  lookupHopsSig:vector  ETV
vector 348056  Network.dyn_peer[28]  lookupTimeSig:vector  ETV
vector 348059  Network.dyn_peer[29]  lookupHopsSig:vector  ETV
vector 348058  Network.dyn_peer[29]  lookupTimeSig:vector  ETV
vector 348063  Network.dyn_peer[31]  lookupHopsSig:vector  ETV
vector 348062  Network.dyn_peer[31]  lookupTimeSig:vector  ETV
vector 348065  Network.dyn_peer[32]  lookupHopsSig:vector  ETV
vector 348064  Network.dyn_peer[32]  lookupTimeSig:vector  ETV
vector 348061  Network.dyn_peer[30]  lookupHopsSig:vector  ETV
vector 348060  Network.dyn_peer[30]  lookupTimeSig:vector  ETV
vector 348067  Network.dyn_peer[33]  lookupHopsSig:vector  ETV
vector 348066  Network.dyn_peer[33]  lookupTimeSig:vector  ETV
vector 348069  Network.dyn_peer[34]  lookupHopsSig:vector  ETV
vector 348068  Network.dyn_peer[34]  lookupTimeSig:vector  ETV
vector 348071  Network.dyn_peer[35]  lookupHopsSig:vector  ETV
vector 348070  Network.dyn_peer[35]  lookupTimeSig:vector  ETV
vector 348073  Network.dyn_peer[36]  lookupHopsSig:vector  ETV
vector 348072  Network.dyn_peer[36]  lookupTimeSig:vector  ETV
vector 348077  Network.dyn_peer[38]  lookupHopsSig:vector  ETV
vector 348076  Network.dyn_peer[38]  lookupTimeSig:vector  ETV
vector 348075  Network.dyn_peer[37]  lookupHopsSig:vector  ETV
vector 348074  Network.dyn_peer[37]  lookupTimeSig:vector  ETV
vector 348079  Network.dyn_peer[39]  lookupHopsSig:vector  ETV
vector 348078  Network.dyn_peer[39]  lookupTimeSig:vector  ETV
vector 348083  Network.dyn_peer[41]  lookupHopsSig:vector  ETV
vector 348082  Network.dyn_peer[41]  lookupTimeSig:vector  ETV
vector 348081  Network.dyn_peer[40]  lookupHopsSig:vector  ETV
vector 348080  Network.dyn_peer[40]  lookupTimeSig:vector  ETV
vector 348085  Network.dyn_peer[42]  lookupHopsSig:vector  ETV
vector 348084  Network.dyn_peer[42]  lookupTimeSig:vector  ETV
vector 348087  Network.dyn_peer[43]  lookupHopsSig:vector  ETV
vector 348086  Network.dyn_peer[43]  lookupTimeSig:vector  ETV
vector 348089  Network.dyn_peer[44]  lookupHopsSig:vector  ETV
vector 348088  Network.dyn_peer[44]  lookupTimeSig:vector  ETV
vector 348093  Network.dyn_peer[46]  lookupHopsSig:vector  ETV
vector 348092  Network.dyn_peer[46]  lookupTimeSig:vector  ETV
vector 348095  Network.dyn_peer[47]  lookupHopsSig:vector  ETV
vector 348094  Network.dyn_peer[47]  lookupTimeSig:vector  ETV
vector 348091  Network.dyn_peer[45]  lookupHopsSig:vector  ETV
vector 348090  Network.dyn_peer[45]  lookupTimeSig:vector  ETV
vector 348099  Network.dyn_peer[49]  lookupHopsSig:vector  ETV
vector 348098  Network.dyn_peer[49]  lookupTimeSig:vector  ETV
vector 348097  Network.dyn_peer[48]  lookupHopsSig:vector  ETV
vector 348096  Network.dyn_peer[48]  lookupTimeSig:vector  ETV
vector 348103  Network.dyn_peer[51]  lookupHopsSig:vector  ETV
vector 348102  Network.dyn_peer[51]  lookupTimeSig:vector  ETV
vector 348101  Network.dyn_peer[50]  lookupHopsSig:vector  ETV
vector 348100  Network.dyn_peer[50]  lookupTimeSig:vector  ETV
vector 348105  Network.dyn_peer[52]  lookupHopsSig:vector  ETV
vector 348104  Network.dyn_peer[52]  lookupTimeSig:vector  ETV
vector 348107  Network.dyn_peer[53]  lookupHopsSig:vector  ETV
vector 348106  Network.dyn_peer[53]  lookupTimeSig:vector  ETV
vector 348109  Network.dyn_peer[54]  lookupHopsSig:vector  ETV
vector 348108  Network.dyn_peer[54]  lookupTimeSig:vector  ETV
vector 348111  Network.dyn_peer[55]  lookupHopsSig:vector  ETV
vector 348110  Network.dyn_peer[55]  lookupTimeSig:vector  ETV
vector 348113  Network.dyn_peer[56]  lookupHopsSig:vector  ETV
vector 348112  Network.dyn_peer[56]  lookupTimeSig:vector  ETV
vector 348115  Network.dyn_peer[57]  lookupHopsSig:vector  ETV
vector 348114  Network.dyn_peer[57]  lookupTimeSig:vector  ETV
vector 348117  Network.dyn_peer[58]  lookupHopsSig:vector  ETV
vector 348116  Network.dyn_peer[58]  lookupTimeSig:vector  ETV
vector 348119  Network.dyn_peer[59]  lookupHopsSig:vector  ETV
vector 348118  Network.dyn_peer[59]  lookupTimeSig:vector  ETV
vector 348121  Network.dyn_peer[60]  lookupHopsSig:vector  ETV
vector 348120  Network.dyn_peer[60]  lookupTimeSig:vector  ETV
vector 348123  Network.dyn_peer[61]  lookupHopsSig:vector  ETV
vector 348122  Network.dyn_peer[61]  lookupTimeSig:vector  ETV
vector 348125  Network.dyn_peer[62]  lookupHopsSig:vector  ETV
vector 348124  Network.dyn_peer[62]  lookupTimeSig:vector  ETV
vector 348131  Network.dyn_peer[65]  lookupHopsSig:vector  ETV
vector 348130  Network.dyn_peer[65]  lookupTimeSig:vector  ETV
vector 348127  Network.dyn_peer[63]  lookupHopsSig:vector  ETV
vector 348126  Network.dyn_peer[63]  lookupTimeSig:vector  ETV
vector 348129  Network.dyn_peer[64]  lookupHopsSig:vector  ETV
vector 348128  Network.dyn_peer[64]  lookupTimeSig:vector  ETV
vector 348133  Network.dyn_peer[66]  lookupHopsSig:vector  ETV
vector 348132  Network.dyn_peer[66]  lookupTimeSig:vector  ETV
vector 348137  Network.dyn_peer[68]  lookupHopsSig:vector  ETV
vector 348136  Network.dyn_peer[68]  lookupTimeSig:vector  ETV
vector 348139  Network.dyn_peer[69]  lookupHopsSig:vector  ETV
vector 348138  Network.dyn_peer[69]  lookupTimeSig:vector  ETV
vector 348141  Network.dyn_peer[70]  lookupHopsSig:vector  ETV
vector 348140  Network.dyn_peer[70]  lookupTimeSig:vector  ETV
vector 348135  Network.dyn_peer[67]  lookupHopsSig:vector  ETV
vector 348134  Network.dyn_peer[67]  lookupTimeSig:vector  ETV
vector 348145  Network.dyn_peer[72]  lookupHopsSig:vector  ETV
vector 348144  Network.dyn_peer[72]  lookupTimeSig:vector  ETV
vector 348147  Network.dyn_peer[73]  lookupHopsSig:vector  ETV
vector 348146  Network.dyn_peer[73]  lookupTimeSig:vector  ETV
vector 348143  Network.dyn_peer[71]  lookupHopsSig:vector  ETV
vector 348142  Network.dyn_peer[71]  lookupTimeSig:vector  ETV
vector 348149  Network.dyn_peer[74]  lookupHopsSig:vector  ETV
vector 348148  Network.dyn_peer[74]  lookupTimeSig:vector  ETV
vector 348151  Network.dyn_peer[75]  lookupHopsSig:vector  ETV
vector 348150  Network.dyn_peer[75]  lookupTimeSig:vector  ETV
vector 348155  Network.dyn_peer[77]  lookupHopsSig:vector  ETV
vector 348154  Network.dyn_peer[77]  lookupTimeSig:vector  ETV
vector 348153  Network.dyn_peer[76]  lookupHopsSig:vector  ETV
vector 348152  Network.dyn_peer[76]  lookupTimeSig:vector  ETV
vector 348157  Network.dyn_peer[78]  lookupHopsSig:vector  ETV
vector 348156  Network.dyn_peer[78]  lookupTimeSig:vector  ETV
vector 348159  Network.dyn_peer[79]  lookupHopsSig:vector  ETV
vector 348158  Network.dyn_peer[79]  lookupTimeSig:vector  ETV
vector 348161  Network.dyn_peer[80]  lookupHopsSig:vector  ETV
vector 348160  Network.dyn_peer[80]  lookupTimeSig:vector  ETV
vector 348163  Network.dyn_peer[81]  lookupHopsSig:vector  ETV
vector 348162  Network.dyn_peer[81]  lookupTimeSig:vector  ETV
vector 348165  Network.dyn_peer[82]  lookupHopsSig:vector  ETV
vector 348164  Network.dyn_peer[82]  lookupTimeSig:vector  ETV
vector 348169  Network.dyn_peer[84]  lookupHopsSig:vector  ETV
vector 348168  Network.dyn_peer[84]  lookupTimeSig:vector  ETV
vector 348167  Network.dyn_peer[83]  lookupHopsSig:vector  ETV
vector 348166  Network.dyn_peer[83]  lookupTimeSig:vector  ETV
vector 348171  Network.dyn_peer[85]  lookupHopsSig:vector  ETV
vector 348170  Network.dyn_peer[85]  lookupTimeSig:vector  ETV
vector 348175  Network.dyn_peer[87]  lookupHopsSig:vector  ETV
vector 348174  Network.dyn_peer[87]  lookupTimeSig:vector  ETV
vector 348177  Network.dyn_peer[88]  lookupHopsSig:vector  ETV
vector 348176  Network.dyn_peer[88]  lookupTimeSig:vector  ETV
vector 348179  Network.dyn_peer[89]  lookupHopsSig:vector  ETV
vector 348178  Network.dyn_peer[89]  lookupTimeSig:vector  ETV
vector 348173  Network.dyn_peer[86]  lookupHopsSig:vector  ETV
vector 348172  Network.dyn_peer[86]  lookupTimeSig:vector  ETV
vector 348181  Network.dyn_peer[90]  lookupHopsSig:vector  ETV
vector 348180  Network.dyn_peer[90]  lookupTimeSig:vector  ETV
vector 348183  Network.dyn_peer[91]  lookupHopsSig:vector  ETV
vector 348182  Network.dyn_peer[91]  lookupTimeSig:vector  ETV
vector 348185  Network.dyn_peer[92]  lookupHopsSig:vector  ETV
vector 348184  Network.dyn_peer[92]  lookupTimeSig:vector  ETV
vector 348189  Network.dyn_peer[94]  lookupHopsSig:vector  ETV
vector 348188  Network.dyn_peer[94]  lookupTimeSig:vector  ETV
vector 348191  Network.dyn_peer[95]  lookupHopsSig:vector  ETV
vector 348190  Network.dyn_peer[95]  lookupTimeSig:vector  ETV
vector 348187  Network.dyn_peer[93]  lookupHopsSig:vector  ETV
vector 348186  Network.dyn_peer[93]  lookupTimeSig:vector  ETV
vector 348195  Network.dyn_peer[97]  lookupHopsSig:vector  ETV
vector 348194  Network.dyn_peer[97]  lookupTimeSig:vector  ETV
vector 348193  Network.dyn_peer[96]  lookupHopsSig:vector  ETV
vector 348192  Network.dyn_peer[96]  lookupTimeSig:vector  ETV
vector 348199  Network.dyn_peer[99]  lookupHopsSig:vector  ETV
vector 348198  Network.dyn_peer[99]  lookupTimeSig:vector  ETV
vector 348197  Network.dyn_peer[98]  lookupHopsSig:vector  ETV
vector 348196  Network.dyn_peer[98]  lookupTimeSig:vector  ETV
vector 348205  Network.dyn_peer[102]  lookupHopsSig:vector  ETV
vector 348204  Network.dyn_peer[102]  lookupTimeSig:vector  ETV
vector 348201  Network.dyn_peer[100]  lookupHopsSig:vector  ETV
vector 348200  Network.dyn_peer[100]  lookupTimeSig:vector  ETV
vector 348203  Network.dyn_peer[101]  lookupHopsSig:vector  ETV
vector 348202  Network.dyn_peer[101]  lookupTimeSig:vector  ETV
vector 348207  Network.dyn_peer[103]  lookupHopsSig:vector  ETV
vector 348206  Network.dyn_peer[103]  lookupTimeSig:vector  ETV
vector 348211  Network.dyn_peer[105]  lookupHopsSig:vector  ETV
vector 348210  Network.dyn_peer[105]  lookupTimeSig:vector  ETV
vector 348209  Network.dyn_peer[104]  lookupHopsSig:vector  ETV
vector 348208  Network.dyn_peer[104]  lookupTimeSig:vector  ETV
vector 348213  Network.dyn_peer[106]  lookupHopsSig:vector  ETV
vector 348212  Network.dyn_peer[106]  lookupTimeSig:vector  ETV
vector 348215  Network.dyn_peer[107]  lookupHopsSig:vector  ETV
vector 348214  Network.dyn_peer[107]  lookupTimeSig:vector  ETV
vector 348217  Network.dyn_peer[108]  lookupHopsSig:vector  ETV
vector 348216  Network.dyn_peer[108]  lookupTimeSig:vector  ETV
vector 348219  Network.dyn_peer[109]  lookupHopsSig:vector  ETV
vector 348218  Network.dyn_peer[109]  lookupTimeSig:vector  ETV
vector 348223  Network.dyn_peer[111]  lookupHopsSig:vector  ETV
vector 348222  Network.dyn_peer[111]  lookupTimeSig:vector  ETV
vector 348221  Network.dyn_peer[110]  lookupHopsSig:vector  ETV
vector 348220  Network.dyn_peer[110]  lookupTimeSig:vector  ETV
vector 348229  Network.dyn_peer[114]  lookupHopsSig:vector  ETV
vector 348228  Network.dyn_peer[114]  lookupTimeSig:vector  ETV
vector 348227  Network.dyn_peer[113]  lookupHopsSig:vector  ETV
vector 348226  Network.dyn_peer[113]  lookupTimeSig:vector  ETV
vector 348225  Network.dyn_peer[112]  lookupHopsSig:vector  ETV
vector 348224  Network.dyn_peer[112]  lookupTimeSig:vector  ETV
vector 348231  Network.dyn_peer[115]  lookupHopsSig:vector  ETV
vector 348230  Network.dyn_peer[115]  lookupTimeSig:vector  ETV
vector 348233  Network.dyn_peer[116]  lookupHopsSig:vector  ETV
vector 348232  Network.dyn_peer[116]  lookupTimeSig:vector  ETV
vector 348239  Network.dyn_peer[119]  lookupHopsSig:vector  ETV
vector 348238  Network.dyn_peer[119]  lookupTimeSig:vector  ETV
vector 348237  Network.dyn_peer[118]  lookupHopsSig:vector  ETV
vector 348236  Network.dyn_peer[118]  lookupTimeSig:vector  ETV
vector 348235  Network.dyn_peer[117]  lookupHopsSig:vector  ETV
vector 348234  Network.dyn_peer[117]  lookupTimeSig:vector  ETV
vector 348247  Network.dyn_peer[123]  lookupHopsSig:vector  ETV
vector 348246  Network.dyn_peer[123]  lookupTimeSig:vector  ETV
vector 348243  Network.dyn_peer[121]  lookupHopsSig:vector  ETV
vector 348242  Network.dyn_peer[121]  lookupTimeSig:vector  ETV
vector 348245  Network.dyn_peer[122]  lookupHopsSig:vector  ETV
vector 348244  Network.dyn_peer[122]  lookupTimeSig:vector  ETV
vector 348241  Network.dyn_peer[120]  lookupHopsSig:vector  ETV
vector 348240  Network.dyn_peer[120]  lookupTimeSig:vector  ETV
vector 348249  Network.dyn_peer[124]  lookupHopsSig:vector  ETV
vector 348248  Network.dyn_peer[124]  lookupTimeSig:vector  ETV
vector 348255  Network.dyn_peer[127]  lookupHopsSig:vector  ETV
vector 348254  Network.dyn_peer[127]  lookupTimeSig:vector  ETV
vector 348257  Network.dyn_peer[128]  lookupHopsSig:vector  ETV
vector 348256  Network.dyn_peer[128]  lookupTimeSig:vector  ETV
vector 348251  Network.dyn_peer[125]  lookupHopsSig:vector  ETV
vector 348250  Network.dyn_peer[125]  lookupTimeSig:vector  ETV
vector 348253  Network.dyn_peer[126]  lookupHopsSig:vector  ETV
vector 348252  Network.dyn_peer[126]  lookupTimeSig:vector  ETV
vector 348259  Network.dyn_peer[129]  lookupHopsSig:vector  ETV
vector 348258  Network.dyn_peer[129]  lookupTimeSig:vector  ETV
vector 348261  Network.dyn_peer[130]  lookupHopsSig:vector  ETV
vector 348260  Network.dyn_peer[130]  lookupTimeSig:vector  ETV
vector 348263  Network.dyn_peer[131]  lookupHopsSig:vector  ETV
vector 348262  Network.dyn_peer[131]  lookupTimeSig:vector  ETV
vector 348265  Network.dyn_peer[132]  lookupHopsSig:vector  ETV
vector 348264  Network.dyn_peer[132]  lookupTimeSig:vector  ETV
vector 348267  Network.dyn_peer[133]  lookupHopsSig:vector  ETV
vector 348266  Network.dyn_peer[133]  lookupTimeSig:vector  ETV
vector 348269  Network.dyn_peer[134]  lookupHopsSig:vector  ETV
vector 348268  Network.dyn_peer[134]  lookupTimeSig:vector  ETV
vector 348271  Network.dyn_peer[135]  lookupHopsSig:vector  ETV
vector 348270  Network.dyn_peer[135]  lookupTimeSig:vector  ETV
vector 348277  Network.dyn_peer[138]  lookupHopsSig:vector  ETV
vector 348276  Network.dyn_peer[138]  lookupTimeSig:vector  ETV
vector 348273  Network.dyn_peer[136]  lookupHopsSig:vector  ETV
vector 348272  Network.dyn_peer[136]  lookupTimeSig:vector  ETV
vector 348275  Network.dyn_peer[137]  lookupHopsSig:vector  ETV
vector 348274  Network.dyn_peer[137]  lookupTimeSig:vector  ETV
vector 348281  Network.dyn_peer[140]  lookupHopsSig:vector  ETV
vector 348280  Network.dyn_peer[140]  lookupTimeSig:vector  ETV
vector 348279  Network.dyn_peer[139]  lookupHopsSig:vector  ETV
vector 348278  Network.dyn_peer[139]  lookupTimeSig:vector  ETV
vector 348283  Network.dyn_peer[141]  lookupHopsSig:vector  ETV
vector 348282  Network.dyn_peer[141]  lookupTimeSig:vector  ETV
vector 348285  Network.dyn_peer[142]  lookupHopsSig:vector  ETV
vector 348284  Network.dyn_peer[142]  lookupTimeSig:vector  ETV
vector 348287  Network.dyn_peer[143]  lookupHopsSig:vector  ETV
vector 348286  Network.dyn_peer[143]  lookupTimeSig:vector  ETV
vector 348289  Network.dyn_peer[144]  lookupHopsSig:vector  ETV
vector 348288  Network.dyn_peer[144]  lookupTimeSig:vector  ETV
vector 348291  Network.dyn_peer[145]  lookupHopsSig:vector  ETV
vector 348290  Network.dyn_peer[145]  lookupTimeSig:vector  ETV
vector 348295  Network.dyn_peer[147]  lookupHopsSig:vector  ETV
vector 348294  Network.dyn_peer[147]  lookupTimeSig:vector  ETV
vector 348301  Network.dyn_peer[150]  lookupHopsSig:vector  ETV
vector 348300  Network.dyn_peer[150]  lookupTimeSig:vector  ETV
vector 348299  Network.dyn_peer[149]  lookupHopsSig:vector  ETV
vector 348298  Network.dyn_peer[149]  lookupTimeSig:vector  ETV
vector 348293  Network.dyn_peer[146]  lookupHopsSig:vector  ETV
vector 348292  Network.dyn_peer[146]  lookupTimeSig:vector  ETV
vector 348297  Network.dyn_peer[148]  lookupHopsSig:vector  ETV
vector 348296  Network.dyn_peer[148]  lookupTimeSig:vector  ETV
vector 348303  Network.dyn_peer[151]  lookupHopsSig:vector  ETV
vector 348302  Network.dyn_peer[151]  lookupTimeSig:vector  ETV
vector 348307  Network.dyn_peer[153]  lookupHopsSig:vector  ETV
vector 348306  Network.dyn_peer[153]  lookupTimeSig:vector  ETV
vector 348305  Network.dyn_peer[152]  lookupHopsSig:vector  ETV
vector 348304  Network.dyn_peer[152]  lookupTimeSig:vector  ETV
vector 348309  Network.dyn_peer[154]  lookupHopsSig:vector  ETV
vector 348308  Network.dyn_peer[154]  lookupTimeSig:vector  ETV
vector 348313  Network.dyn_peer[156]  lookupHopsSig:vector  ETV
vector 348312  Network.dyn_peer[156]  lookupTimeSig:vector  ETV
vector 348315  Network.dyn_peer[157]  lookupHopsSig:vector  ETV
vector 348314  Network.dyn_peer[157]  lookupTimeSig:vector  ETV
vector 348319  Network.dyn_peer[159]  lookupHopsSig:vector  ETV
vector 348318  Network.dyn_peer[159]  lookupTimeSig:vector  ETV
vector 348321  Network.dyn_peer[160]  lookupHopsSig:vector  ETV
vector 348320  Network.dyn_peer[160]  lookupTimeSig:vector  ETV
vector 348311  Network.dyn_peer[155]  lookupHopsSig:vector  ETV
vector 348310  Network.dyn_peer[155]  lookupTimeSig:vector  ETV
vector 348323  Network.dyn_peer[161]  lookupHopsSig:vector  ETV
vector 348322  Network.dyn_peer[161]  lookupTimeSig:vector  ETV
vector 348317  Network.dyn_peer[158]  lookupHopsSig:vector  ETV
vector 348316  Network.dyn_peer[158]  lookupTimeSig:vector  ETV
vector 348327  Network.dyn_peer[163]  lookupHopsSig:vector  ETV
vector 348326  Network.dyn_peer[163]  lookupTimeSig:vector  ETV
vector 348333  Network.dyn_peer[166]  lookupHopsSig:vector  ETV
vector 348332  Network.dyn_peer[166]  lookupTimeSig:vector  ETV
vector 348331  Network.dyn_peer[165]  lookupHopsSig:vector  ETV
vector 348330  Network.dyn_peer[165]  lookupTimeSig:vector  ETV
vector 348335  Network.dyn_peer[167]  lookupHopsSig:vector  ETV
vector 348334  Network.dyn_peer[167]  lookupTimeSig:vector  ETV
vector 348329  Network.dyn_peer[164]  lookupHopsSig:vector  ETV
vector 348328  Network.dyn_peer[164]  lookupTimeSig:vector  ETV
vector 348325  Network.dyn_peer[162]  lookupHopsSig:vector  ETV
vector 348324  Network.dyn_peer[162]  lookupTimeSig:vector  ETV
vector 348339  Network.dyn_peer[169]  lookupHopsSig:vector  ETV
vector 348338  Network.dyn_peer[169]  lookupTimeSig:vector  ETV
vector 348341  Network.dyn_peer[170]  lookupHopsSig:vector  ETV
vector 348340  Network.dyn_peer[170]  lookupTimeSig:vector  ETV
vector 348343  Network.dyn_peer[171]  lookupHopsSig:vector  ETV
vector 348342  Network.dyn_peer[171]  lookupTimeSig:vector  ETV
vector 348337  Network.dyn_peer[168]  lookupHopsSig:vector  ETV
vector 348336  Network.dyn_peer[168]  lookupTimeSig:vector  ETV
vector 348345  Network.dyn_peer[172]  lookupHopsSig:vector  ETV
vector 348344  Network.dyn_peer[172]  lookupTimeSig:vector  ETV
vector 348347  Network.dyn_peer[173]  lookupHopsSig:vector  ETV
vector 348346  Network.dyn_peer[173]  lookupTimeSig:vector  ETV
vector 348349  Network.dyn_peer[174]  lookupHopsSig:vector  ETV
vector 348348  Network.dyn_peer[174]  lookupTimeSig:vector  ETV
vector 348357  Network.dyn_peer[178]  lookupHopsSig:vector  ETV
vector 348356  Network.dyn_peer[178]  lookupTimeSig:vector  ETV
vector 348351  Network.dyn_peer[175]  lookupHopsSig:vector  ETV
vector 348350  Network.dyn_peer[175]  lookupTimeSig:vector  ETV
vector 348361  Network.dyn_peer[180]  lookupHopsSig:vector  ETV
vector 348360  Network.dyn_peer[180]  lookupTimeSig:vector  ETV
vector 348353  Network.dyn_peer[176]  lookupHopsSig:vector  ETV
vector 348352  Network.dyn_peer[176]  lookupTimeSig:vector  ETV
vector 348355  Network.dyn_peer[177]  lookupHopsSig:vector  ETV
vector 348354  Network.dyn_peer[177]  lookupTimeSig:vector  ETV
vector 348363  Network.dyn_peer[181]  lookupHopsSig:vector  ETV
vector 348362  Network.dyn_peer[181]  lookupTimeSig:vector  ETV
vector 348359  Network.dyn_peer[179]  lookupHopsSig:vector  ETV
vector 348358  Network.dyn_peer[179]  lookupTimeSig:vector  ETV
vector 348371  Network.dyn_peer[185]  lookupHopsSig:vector  ETV
vector 348370  Network.dyn_peer[185]  lookupTimeSig:vector  ETV
vector 348369  Network.dyn_peer[184]  lookupHopsSig:vector  ETV
vector 348368  Network.dyn_peer[184]  lookupTimeSig:vector  ETV
vector 348365  Network.dyn_peer[182]  lookupHopsSig:vector  ETV
vector 348364  Network.dyn_peer[182]  lookupTimeSig:vector  ETV
vector 348367  Network.dyn_peer[183]  lookupHopsSig:vector  ETV
vector 348366  Network.dyn_peer[183]  lookupTimeSig:vector  ETV
vector 348375  Network.dyn_peer[187]  lookupHopsSig:vector  ETV
vector 348374  Network.dyn_peer[187]  lookupTimeSig:vector  ETV
vector 348373  Network.dyn_peer[186]  lookupHopsSig:vector  ETV
vector 348372  Network.dyn_peer[186]  lookupTimeSig:vector  ETV
vector 348377  Network.dyn_peer[188]  lookupHopsSig:vector  ETV
vector 348376  Network.dyn_peer[188]  lookupTimeSig:vector  ETV
vector 348383  Network.dyn_peer[191]  lookupHopsSig:vector  ETV
vector 348382  Network.dyn_peer[191]  lookupTimeSig:vector  ETV
vector 348381  Network.dyn_peer[190]  lookupHopsSig:vector  ETV
vector 348380  Network.dyn_peer[190]  lookupTimeSig:vector  ETV
vector 348389  Network.dyn_peer[194]  lookupHopsSig:vector  ETV
vector 348388  Network.dyn_peer[194]  lookupTimeSig:vector  ETV
vector 348379  Network.dyn_peer[189]  lookupHopsSig:vector  ETV
vector 348378  Network.dyn_peer[189]  lookupTimeSig:vector  ETV
vector 348385  Network.dyn_peer[192]  lookupHopsSig:vector  ETV
vector 348384  Network.dyn_peer[192]  lookupTimeSig:vector  ETV
vector 348387  Network.dyn_peer[193]  lookupHopsSig:vector  ETV
vector 348386  Network.dyn_peer[193]  lookupTimeSig:vector  ETV
vector 348393  Network.dyn_peer[196]  lookupHopsSig:vector  ETV
vector 348392  Network.dyn_peer[196]  lookupTimeSig:vector  ETV
vector 348399  Network.dyn_peer[199]  lookupHopsSig:vector  ETV
vector 348398  Network.dyn_peer[199]  lookupTimeSig:vector  ETV
vector 348391  Network.dyn_peer[195]  lookupHopsSig:vector  ETV
vector 348390  Network.dyn_peer[195]  lookupTimeSig:vector  ETV
vector 348395  Network.dyn_peer[197]  lookupHopsSig:vector  ETV
vector 348394  Network.dyn_peer[197]  lookupTimeSig:vector  ETV
vector 348397  Network.dyn_peer[198]  lookupHopsSig:vector  ETV
vector 348396  Network.dyn_peer[198]  lookupTimeSig:vector  ETV
vector 348405  Network.dyn_peer[202]  lookupHopsSig:vector  ETV
vector 348404  Network.dyn_peer[202]  lookupTimeSig:vector  ETV
vector 348401  Network.dyn_peer[200]  lookupHopsSig:vector  ETV
vector 348400  Network.dyn_peer[200]  lookupTimeSig:vector  ETV
vector 348403  Network.dyn_peer[201]  lookupHopsSig:vector  ETV
vector 348402  Network.dyn_peer[201]  lookupTimeSig:vector  ETV
vector 348411  Network.dyn_peer[205]  lookupHopsSig:vector  ETV
vector 348410  Network.dyn_peer[205]  lookupTimeSig:vector  ETV
vector 348413  Network.dyn_peer[206]  lookupHopsSig:vector  ETV
vector 348412  Network.dyn_peer[206]  lookupTimeSig:vector  ETV
vector 348407  Network.dyn_peer[203]  lookupHopsSig:vector  ETV
vector 348406  Network.dyn_peer[203]  lookupTimeSig:vector  ETV
vector 348409  Network.dyn_peer[204]  lookupHopsSig:vector  ETV
vector 348408  Network.dyn_peer[204]  lookupTimeSig:vector  ETV
vector 348417  Network.dyn_peer[208]  lookupHopsSig:vector  ETV
vector 348416  Network.dyn_peer[208]  lookupTimeSig:vector  ETV
vector 348419  Network.dyn_peer[209]  lookupHopsSig:vector  ETV
vector 348418  Network.dyn_peer[209]  lookupTimeSig:vector  ETV
vector 348415  Network.dyn_peer[207]  lookupHopsSig:vector  ETV
vector 348414  Network.dyn_peer[207]  lookupTimeSig:vector  ETV
vector 348427  Network.dyn_peer[213]  lookupHopsSig:vector  ETV
vector 348426  Network.dyn_peer[213]  lookupTimeSig:vector  ETV
vector 348421  Network.dyn_peer[210]  lookupHopsSig:vector  ETV
vector 348420  Network.dyn_peer[210]  lookupTimeSig:vector  ETV
vector 348423  Network.dyn_peer[211]  lookupHopsSig:vector  ETV
vector 348422  Network.dyn_peer[211]  lookupTimeSig:vector  ETV
vector 348425  Network.dyn_peer[212]  lookupHopsSig:vector  ETV
vector 348424  Network.dyn_peer[212]  lookupTimeSig:vector  ETV
vector 348429  Network.dyn_peer[214]  lookupHopsSig:vector  ETV
vector 348428  Network.dyn_peer[214]  lookupTimeSig:vector  ETV
vector 348431  Network.dyn_peer[215]  lookupHopsSig:vector  ETV
vector 348430  Network.dyn_peer[215]  lookupTimeSig:vector  ETV
vector 348433  Network.dyn_peer[216]  lookupHopsSig:vector  ETV
vector 348432  Network.dyn_peer[216]  lookupTimeSig:vector  ETV
vector 348435  Network.dyn_peer[217]  lookupHopsSig:vector  ETV
vector 348434  Network.dyn_peer[217]  lookupTimeSig:vector  ETV
vector 348439  Network.dyn_peer[219]  lookupHopsSig:vector  ETV
vector 348438  Network.dyn_peer[219]  lookupTimeSig:vector  ETV
vector 348441  Network.dyn_peer[220]  lookupHopsSig:vector  ETV
vector 348440  Network.dyn_peer[220]  lookupTimeSig:vector  ETV
vector 348445  Network.dyn_peer[222]  lookupHopsSig:vector  ETV
vector 348444  Network.dyn_peer[222]  lookupTimeSig:vector  ETV
vector 348437  Network.dyn_peer[218]  lookupHopsSig:vector  ETV
vector 348436  Network.dyn_peer[218]  lookupTimeSig:vector  ETV
vector 348443  Network.dyn_peer[221]  lookupHopsSig:vector  ETV
vector 348442  Network.dyn_peer[221]  lookupTimeSig:vector  ETV
vector 348447  Network.dyn_peer[223]  lookupHopsSig:vector  ETV
vector 348446  Network.dyn_peer[223]  lookupTimeSig:vector  ETV
vector 348457  Network.dyn_peer[228]  lookupHopsSig:vector  ETV
vector 348456  Network.dyn_peer[228]  lookupTimeSig:vector  ETV
vector 348449  Network.dyn_peer[224]  lookupHopsSig:vector  ETV
vector 348448  Network.dyn_peer[224]  lookupTimeSig:vector  ETV
vector 348455  Network.dyn_peer[227]  lookupHopsSig:vector  ETV
vector 348454  Network.dyn_peer[227]  lookupTimeSig:vector  ETV
vector 348459  Network.dyn_peer[229]  lookupHopsSig:vector  ETV
vector 348458  Network.dyn_peer[229]  lookupTimeSig:vector  ETV
vector 348451  Network.dyn_peer[225]  lookupHopsSig:vector  ETV
vector 348450  Network.dyn_peer[225]  lookupTimeSig:vector  ETV
vector 348453  Network.dyn_peer[226]  lookupHopsSig:vector  ETV
vector 348452  Network.dyn_peer[226]  lookupTimeSig:vector  ETV
vector 348463  Network.dyn_peer[231]  lookupHopsSig:vector  ETV
vector 348462  Network.dyn_peer[231]  lookupTimeSig:vector  ETV
vector 348471  Network.dyn_peer[235]  lookupHopsSig:vector  ETV
vector 348470  Network.dyn_peer[235]  lookupTimeSig:vector  ETV