version 2
run Stability-58-20130521-22:26:20-23591
attr configname Stability
attr datetime 20130521-22:26:20
attr experiment Stability
attr inifile omnetpp.ini
attr iterationvars $0=4
attr iterationvars2 "$0=4, $repetition=28"
attr measurement $0=4
attr network Network
attr processid 23591
attr repetition 28
attr replication #28
attr resultdir results
attr runnumber 58
attr seedset 58

vector 116001  Network.dyn_peer[0]  lookupHopsSig:vector  ETV
vector 116000  Network.dyn_peer[0]  lookupTimeSig:vector  ETV
vector 116003  Network.dyn_peer[1]  lookupHopsSig:vector  ETV
vector 116002  Network.dyn_peer[1]  lookupTimeSig:vector  ETV
vector 116005  Network.dyn_peer[2]  lookupHopsSig:vector  ETV
vector 116004  Network.dyn_peer[2]  lookupTimeSig:vector  ETV
vector 116007  Network.dyn_peer[3]  lookupHopsSig:vector  ETV
vector 116006  Network.dyn_peer[3]  lookupTimeSig:vector  ETV
vector 116009  Network.dyn_peer[4]  lookupHopsSig:vector  ETV
vector 116008  Network.dyn_peer[4]  lookupTimeSig:vector  ETV
vector 116011  Network.dyn_peer[5]  lookupHopsSig:vector  ETV
vector 116010  Network.dyn_peer[5]  lookupTimeSig:vector  ETV
vector 116013  Network.dyn_peer[6]  lookupHopsSig:vector  ETV
vector 116012  Network.dyn_peer[6]  lookupTimeSig:vector  ETV
vector 116015  Network.dyn_peer[7]  lookupHopsSig:vector  ETV
vector 116014  Network.dyn_peer[7]  lookupTimeSig:vector  ETV
vector 116017  Network.dyn_peer[8]  lookupHopsSig:vector  ETV
vector 116016  Network.dyn_peer[8]  lookupTimeSig:vector  ETV
vector 116019  Network.dyn_peer[9]  lookupHopsSig:vector  ETV
vector 116018  Network.dyn_peer[9]  lookupTimeSig:vector  ETV
vector 116021  Network.dyn_peer[10]  lookupHopsSig:vector  ETV
vector 116020  Network.dyn_peer[10]  lookupTimeSig:vector  ETV
vector 116023  Network.dyn_peer[11]  lookupHopsSig:vector  ETV
vector 116022  Network.dyn_peer[11]  lookupTimeSig:vector  ETV
vector 116025  Network.dyn_peer[12]  lookupHopsSig:vector  ETV
vector 116024  Network.dyn_peer[12]  lookupTimeSig:vector  ETV
vector 116027  Network.dyn_peer[13]  lookupHopsSig:vector  ETV
vector 116026  Network.dyn_peer[13]  lookupTimeSig:vector  ETV
vector 116029  Network.dyn_peer[14]  lookupHopsSig:vector  ETV
vector 116028  Network.dyn_peer[14]  lookupTimeSig:vector  ETV
vector 116031  Network.dyn_peer[15]  lookupHopsSig:vector  ETV
vector 116030  Network.dyn_peer[15]  lookupTimeSig:vector  ETV
vector 116033  Network.dyn_peer[16]  lookupHopsSig:vector  ETV
vector 116032  Network.dyn_peer[16]  lookupTimeSig:vector  ETV
vector 116035  Network.dyn_peer[17]  lookupHopsSig:vector  ETV
vector 116034  Network.dyn_peer[17]  lookupTimeSig:vector  ETV
vector 116037  Network.dyn_peer[18]  lookupHopsSig:vector  ETV
vector 116036  Network.dyn_peer[18]  lookupTimeSig:vector  ETV
vector 116039  Network.dyn_peer[19]  lookupHopsSig:vector  ETV
vector 116038  Network.dyn_peer[19]  lookupTimeSig:vector  ETV
vector 116041  Network.dyn_peer[20]  lookupHopsSig:vector  ETV
vector 116040  Network.dyn_peer[20]  lookupTimeSig:vector  ETV
vector 116043  Network.dyn_peer[21]  lookupHopsSig:vector  ETV
vector 116042  Network.dyn_peer[21]  lookupTimeSig:vector  ETV
vector 116045  Network.dyn_peer[22]  lookupHopsSig:vector  ETV
vector 116044  Network.dyn_peer[22]  lookupTimeSig:vector  ETV
vector 116047  Network.dyn_peer[23]  lookupHopsSig:vector  ETV
vector 116046  Network.dyn_peer[23]  lookupTimeSig:vector  ETV
vector 116049  Network.dyn_peer[24]  lookupHopsSig:vector  ETV
vector 116048  Network.dyn_peer[24]  lookupTimeSig:vector  ETV
vector 116051  Network.dyn_peer[25]  lookupHopsSig:vector  ETV
vector 116050  Network.dyn_peer[25]  lookupTimeSig:vector  ETV
vector 116053  Network.dyn_peer[26]  lookupHopsSig:vector  ETV
vector 116052  Network.dyn_peer[26]  lookupTimeSig:vector  ETV
vector 116055  Network.dyn_peer[27]  lookupHopsSig:vector  ETV
vector 116054  Network.dyn_peer[27]  lookupTimeSig:vector  ETV
vector 116057  Network.dyn_peer[28]  lookupHopsSig:vector  ETV
vector 116056  Network.dyn_peer[28]  lookupTimeSig:vector  ETV
vector 116059  Network.dyn_peer[29]  lookupHopsSig:vector  ETV
vector 116058  Network.dyn_peer[29]  lookupTimeSig:vector  ETV
vector 116061  Network.dyn_peer[30]  lookupHopsSig:vector  ETV
vector 116060  Network.dyn_peer[30]  lookupTimeSig:vector  ETV
vector 116063  Network.dyn_peer[31]  lookupHopsSig:vector  ETV
vector 116062  Network.dyn_peer[31]  lookupTimeSig:vector  ETV
vector 116065  Network.dyn_peer[32]  lookupHopsSig:vector  ETV
vector 116064  Network.dyn_peer[32]  lookupTimeSig:vector  ETV
vector 116067  Network.dyn_peer[33]  lookupHopsSig:vector  ETV
vector 116066  Network.dyn_peer[33]  lookupTimeSig:vector  ETV
vector 116069  Network.dyn_peer[34]  lookupHopsSig:vector  ETV
vector 116068  Network.dyn_peer[34]  lookupTimeSig:vector  ETV
vector 116071  Network.dyn_peer[35]  lookupHopsSig:vector  ETV
vector 116070  Network.dyn_peer[35]  lookupTimeSig:vector  ETV
vector 116073  Network.dyn_peer[36]  lookupHopsSig:vector  ETV
vector 116072  Network.dyn_peer[36]  lookupTimeSig:vector  ETV
vector 116075  Network.dyn_peer[37]  lookupHopsSig:vector  ETV
vector 116074  Network.dyn_peer[37]  lookupTimeSig:vector  ETV
vector 116077  Network.dyn_peer[38]  lookupHopsSig:vector  ETV
vector 116076  Network.dyn_peer[38]  lookupTimeSig:vector  ETV
vector 116079  Network.dyn_peer[39]  lookupHopsSig:vector  ETV
vector 116078  Network.dyn_peer[39]  lookupTimeSig:vector  ETV
vector 116081  Network.dyn_peer[40]  lookupHopsSig:vector  ETV
vector 116080  Network.dyn_peer[40]  lookupTimeSig:vector  ETV
vector 116083  Network.dyn_peer[41]  lookupHopsSig:vector  ETV
vector 116082  Network.dyn_peer[41]  lookupTimeSig:vector  ETV
vector 116085  Network.dyn_peer[42]  lookupHopsSig:vector  ETV
vector 116084  Network.dyn_peer[42]  lookupTimeSig:vector  ETV
vector 116087  Network.dyn_peer[43]  lookupHopsSig:vector  ETV
vector 116086  Network.dyn_peer[43]  lookupTimeSig:vector  ETV
vector 116089  Network.dyn_peer[44]  lookupHopsSig:vector  ETV
vector 116088  Network.dyn_peer[44]  lookupTimeSig:vector  ETV
vector 116091  Network.dyn_peer[45]  lookupHopsSig:vector  ETV
vector 116090  Network.dyn_peer[45]  lookupTimeSig:vector  ETV
vector 116093  Network.dyn_peer[46]  lookupHopsSig:vector  ETV
vector 116092  Network.dyn_peer[46]  lookupTimeSig:vector  ETV
vector 116095  Network.dyn_peer[47]  lookupHopsSig:vector  ETV
vector 116094  Network.dyn_peer[47]  lookupTimeSig:vector  ETV
vector 116097  Network.dyn_peer[48]  lookupHopsSig:vector  ETV
vector 116096  Network.dyn_peer[48]  lookupTimeSig:vector  ETV
vector 116099  Network.dyn_peer[49]  lookupHopsSig:vector  ETV
vector 116098  Network.dyn_peer[49]  lookupTimeSig:vector  ETV
vector 116101  Network.dyn_peer[50]  lookupHopsSig:vector  ETV
vector 116100  Network.dyn_peer[50]  lookupTimeSig:vector  ETV
vector 116103  Network.dyn_peer[51]  lookupHopsSig:vector  ETV
vector 116102  Network.dyn_peer[51]  lookupTimeSig:vector  ETV
vector 116105  Network.dyn_peer[52]  lookupHopsSig:vector  ETV
vector 116104  Network.dyn_peer[52]  lookupTimeSig:vector  ETV
vector 116107  Network.dyn_peer[53]  lookupHopsSig:vector  ETV
vector 116106  Network.dyn_peer[53]  lookupTimeSig:vector  ETV
vector 116109  Network.dyn_peer[54]  lookupHopsSig:vector  ETV
vector 116108  Network.dyn_peer[54]  lookupTimeSig:vector  ETV
vector 116111  Network.dyn_peer[55]  lookupHopsSig:vector  ETV
vector 116110  Network.dyn_peer[55]  lookupTimeSig:vector  ETV
vector 116113  Network.dyn_peer[56]  lookupHopsSig:vector  ETV
vector 116112  Network.dyn_peer[56]  lookupTimeSig:vector  ETV
vector 116115  Network.dyn_peer[57]  lookupHopsSig:vector  ETV
vector 116114  Network.dyn_peer[57]  lookupTimeSig:vector  ETV
vector 116117  Network.dyn_peer[58]  lookupHopsSig:vector  ETV
vector 116116  Network.dyn_peer[58]  lookupTimeSig:vector  ETV
vector 116119  Network.dyn_peer[59]  lookupHopsSig:vector  ETV
vector 116118  Network.dyn_peer[59]  lookupTimeSig:vector  ETV
vector 116121  Network.dyn_peer[60]  lookupHopsSig:vector  ETV
vector 116120  Network.dyn_peer[60]  lookupTimeSig:vector  ETV
vector 116123  Network.dyn_peer[61]  lookupHopsSig:vector  ETV
vector 116122  Network.dyn_peer[61]  lookupTimeSig:vector  ETV
vector 116125  Network.dyn_peer[62]  lookupHopsSig:vector  ETV
vector 116124  Network.dyn_peer[62]  lookupTimeSig:vector  ETV
vector 116127  Network.dyn_peer[63]  lookupHopsSig:vector  ETV
vector 116126  Network.dyn_peer[63]  lookupTimeSig:vector  ETV
vector 116129  Network.dyn_peer[64]  lookupHopsSig:vector  ETV
vector 116128  Network.dyn_peer[64]  lookupTimeSig:vector  ETV
vector 116131  Network.dyn_peer[65]  lookupHopsSig:vector  ETV
vector 116130  Network.dyn_peer[65]  lookupTimeSig:vector  ETV
vector 116133  Network.dyn_peer[66]  lookupHopsSig:vector  ETV
vector 116132  Network.dyn_peer[66]  lookupTimeSig:vector  ETV
vector 116135  Network.dyn_peer[67]  lookupHopsSig:vector  ETV
vector 116134  Network.dyn_peer[67]  lookupTimeSig:vector  ETV
vector 116137  Network.dyn_peer[68]  lookupHopsSig:vector  ETV
vector 116136  Network.dyn_peer[68]  lookupTimeSig:vector  ETV
vector 116139  Network.dyn_peer[69]  lookupHopsSig:vector  ETV
vector 116138  Network.dyn_peer[69]  lookupTimeSig:vector  ETV
vector 116141  Network.dyn_peer[70]  lookupHopsSig:vector  ETV
vector 116140  Network.dyn_peer[70]  lookupTimeSig:vector  ETV
vector 116143  Network.dyn_peer[71]  lookupHopsSig:vector  ETV
vector 116142  Network.dyn_peer[71]  lookupTimeSig:vector  ETV
vector 116145  Network.dyn_peer[72]  lookupHopsSig:vector  ETV
vector 116144  Network.dyn_peer[72]  lookupTimeSig:vector  ETV
vector 116147  Network.dyn_peer[73]  lookupHopsSig:vector  ETV
vector 116146  Network.dyn_peer[73]  lookupTimeSig:vector  ETV
vector 116149  Network.dyn_peer[74]  lookupHopsSig:vector  ETV
vector 116148  Network.dyn_peer[74]  lookupTimeSig:vector  ETV
vector 116151  Network.dyn_peer[75]  lookupHopsSig:vector  ETV
vector 116150  Network.dyn_peer[75]  lookupTimeSig:vector  ETV
vector 116153  Network.dyn_peer[76]  lookupHopsSig:vector  ETV
vector 116152  Network.dyn_peer[76]  lookupTimeSig:vector  ETV
vector 116155  Network.dyn_peer[77]  lookupHopsSig:vector  ETV
vector 116154  Network.dyn_peer[77]  lookupTimeSig:vector  ETV
vector 116157  Network.dyn_peer[78]  lookupHopsSig:vector  ETV
vector 116156  Network.dyn_peer[78]  lookupTimeSig:vector  ETV
vector 116159  Network.dyn_peer[79]  lookupHopsSig:vector  ETV
vector 116158  Network.dyn_peer[79]  lookupTimeSig:vector  ETV
vector 116161  Network.dyn_peer[80]  lookupHopsSig:vector  ETV
vector 116160  Network.dyn_peer[80]  lookupTimeSig:vector  ETV
vector 116163  Network.dyn_peer[81]  lookupHopsSig:vector  ETV
vector 116162  Network.dyn_peer[81]  lookupTimeSig:vector  ETV
vector 116165  Network.dyn_peer[82]  lookupHopsSig:vector  ETV
vector 116164  Network.dyn_peer[82]  lookupTimeSig:vector  ETV
vector 116167  Network.dyn_peer[83]  lookupHopsSig:vector  ETV
vector 116166  Network.dyn_peer[83]  lookupTimeSig:vector  ETV
vector 116169  Network.dyn_peer[84]  lookupHopsSig:vector  ETV
vector 116168  Network.dyn_peer[84]  lookupTimeSig:vector  ETV
vector 116171  Network.dyn_peer[85]  lookupHopsSig:vector  ETV
vector 116170  Network.dyn_peer[85]  lookupTimeSig:vector  ETV
vector 116173  Network.dyn_peer[86]  lookupHopsSig:vector  ETV
vector 116172  Network.dyn_peer[86]  lookupTimeSig:vector  ETV
vector 116175  Network.dyn_peer[87]  lookupHopsSig:vector  ETV
vector 116174  Network.dyn_peer[87]  lookupTimeSig:vector  ETV
vector 116177  Network.dyn_peer[88]  lookupHopsSig:vector  ETV
vector 116176  Network.dyn_peer[88]  lookupTimeSig:vector  ETV
vector 116179  Network.dyn_peer[89]  lookupHopsSig:vector  ETV
vector 116178  Network.dyn_peer[89]  lookupTimeSig:vector  ETV
vector 116181  Network.dyn_peer[90]  lookupHopsSig:vector  ETV
vector 116180  Network.dyn_peer[90]  lookupTimeSig:vector  ETV
vector 116183  Network.dyn_peer[91]  lookupHopsSig:vector  ETV
vector 116182  Network.dyn_peer[91]  lookupTimeSig:vector  ETV
vector 116185  Network.dyn_peer[92]  lookupHopsSig:vector  ETV
vector 116184  Network.dyn_peer[92]  lookupTimeSig:vector  ETV
vector 116187  Network.dyn_peer[93]  lookupHopsSig:vector  ETV
vector 116186  Network.dyn_peer[93]  lookupTimeSig:vector  ETV
vector 116189  Network.dyn_peer[94]  lookupHopsSig:vector  ETV
vector 116188  Network.dyn_peer[94]  lookupTimeSig:vector  ETV
vector 116191  Network.dyn_peer[95]  lookupHopsSig:vector  ETV
vector 116190  Network.dyn_peer[95]  lookupTimeSig:vector  ETV
vector 116193  Network.dyn_peer[96]  lookupHopsSig:vector  ETV
vector 116192  Network.dyn_peer[96]  lookupTimeSig:vector  ETV
vector 116195  Network.dyn_peer[97]  lookupHopsSig:vector  ETV
vector 116194  Network.dyn_peer[97]  lookupTimeSig:vector  ETV
vector 116197  Network.dyn_peer[98]  lookupHopsSig:vector  ETV
vector 116196  Network.dyn_peer[98]  lookupTimeSig:vector  ETV
vector 116199  Network.dyn_peer[99]  lookupHopsSig:vector  ETV
vector 116198  Network.dyn_peer[99]  lookupTimeSig:vector  ETV
vector 116201  Network.dyn_peer[100]  lookupHopsSig:vector  ETV
vector 116200  Network.dyn_peer[100]  lookupTimeSig:vector  ETV
vector 116203  Network.dyn_peer[101]  lookupHopsSig:vector  ETV
vector 116202  Network.dyn_peer[101]  lookupTimeSig:vector  ETV
vector 116205  Network.dyn_peer[102]  lookupHopsSig:vector  ETV
vector 116204  Network.dyn_peer[102]  lookupTimeSig:vector  ETV
vector 116207  Network.dyn_peer[103]  lookupHopsSig:vector  ETV
vector 116206  Network.dyn_peer[103]  lookupTimeSig:vector  ETV
vector 116209  Network.dyn_peer[104]  lookupHopsSig:vector  ETV
vector 116208  Network.dyn_peer[104]  lookupTimeSig:vector  ETV
vector 116211  Network.dyn_peer[105]  lookupHopsSig:vector  ETV
vector 116210  Network.dyn_peer[105]  lookupTimeSig:vector  ETV
vector 116213  Network.dyn_peer[106]  lookupHopsSig:vector  ETV
vector 116212  Network.dyn_peer[106]  lookupTimeSig:vector  ETV
vector 116215  Network.dyn_peer[107]  lookupHopsSig:vector  ETV
vector 116214  Network.dyn_peer[107]  lookupTimeSig:vector  ETV
vector 116217  Network.dyn_peer[108]  lookupHopsSig:vector  ETV
vector 116216  Network.dyn_peer[108]  lookupTimeSig:vector  ETV
vector 116219  Network.dyn_peer[109]  lookupHopsSig:vector  ETV
vector 116218  Network.dyn_peer[109]  lookupTimeSig:vector  ETV
vector 116221  Network.dyn_peer[110]  lookupHopsSig:vector  ETV
vector 116220  Network.dyn_peer[110]  lookupTimeSig:vector  ETV
vector 116223  Network.dyn_peer[111]  lookupHopsSig:vector  ETV
vector 116222  Network.dyn_peer[111]  lookupTimeSig:vector  ETV
vector 116225  Network.dyn_peer[112]  lookupHopsSig:vector  ETV
vector 116224  Network.dyn_peer[112]  lookupTimeSig:vector  ETV
vector 116227  Network.dyn_peer[113]  lookupHopsSig:vector  ETV
vector 116226  Network.dyn_peer[113]  lookupTimeSig:vector  ETV
vector 116229  Network.dyn_peer[114]  lookupHopsSig:vector  ETV
vector 116228  Network.dyn_peer[114]  lookupTimeSig:vector  ETV
vector 116231  Network.dyn_peer[115]  lookupHopsSig:vector  ETV
vector 116230  Network.dyn_peer[115]  lookupTimeSig:vector  ETV
vector 116233  Network.dyn_peer[116]  lookupHopsSig:vector  ETV
vector 116232  Network.dyn_peer[116]  lookupTimeSig:vector  ETV
vector 116235  Network.dyn_peer[117]  lookupHopsSig:vector  ETV
vector 116234  Network.dyn_peer[117]  lookupTimeSig:vector  ETV
vector 116237  Network.dyn_peer[118]  lookupHopsSig:vector  ETV
vector 116236  Network.dyn_peer[118]  lookupTimeSig:vector  ETV
vector 116239  Network.dyn_peer[119]  lookupHopsSig:vector  ETV
vector 116238  Network.dyn_peer[119]  lookupTimeSig:vector  ETV
vector 116241  Network.dyn_peer[120]  lookupHopsSig:vector  ETV
vector 116240  Network.dyn_peer[120]  lookupTimeSig:vector  ETV
vector 116243  Network.dyn_peer[121]  lookupHopsSig:vector  ETV
vector 116242  Network.dyn_peer[121]  lookupTimeSig:vector  ETV
vector 116245  Network.dyn_peer[122]  lookupHopsSig:vector  ETV
vector 116244  Network.dyn_peer[122]  lookupTimeSig:vector  ETV
vector 116247  Network.dyn_peer[123]  lookupHopsSig:vector  ETV
vector 116246  Network.dyn_peer[123]  lookupTimeSig:vector  ETV
vector 116249  Network.dyn_peer[124]  lookupHopsSig:vector  ETV
vector 116248  Network.dyn_peer[124]  lookupTimeSig:vector  ETV
vector 116251  Network.dyn_peer[125]  lookupHopsSig:vector  ETV
vector 116250  Network.dyn_peer[125]  lookupTimeSig:vector  ETV
vector 116253  Network.dyn_peer[126]  lookupHopsSig:vector  ETV
vector 116252  Network.dyn_peer[126]  lookupTimeSig:vector  ETV
vector 116255  Network.dyn_peer[127]  lookupHopsSig:vector  ETV
vector 116254  Network.dyn_peer[127]  lookupTimeSig:vector  ETV
vector 116257  Network.dyn_peer[128]  lookupHopsSig:vector  ETV
vector 116256  Network.dyn_peer[128]  lookupTimeSig:vector  ETV
vector 116259  Network.dyn_peer[129]  lookupHopsSig:vector  ETV
vector 116258  Network.dyn_peer[129]  lookupTimeSig:vector  ETV
vector 116261  Network.dyn_peer[130]  lookupHopsSig:vector  ETV
vector 116260  Network.dyn_peer[130]  lookupTimeSig:vector  ETV
vector 116263  Network.dyn_peer[131]  lookupHopsSig:vector  ETV
vector 116262  Network.dyn_peer[131]  lookupTimeSig:vector  ETV
vector 116265  Network.dyn_peer[132]  lookupHopsSig:vector  ETV
vector 116264  Network.dyn_peer[132]  lookupTimeSig:vector  ETV
vector 116267  Network.dyn_peer[133]  lookupHopsSig:vector  ETV
vector 116266  Network.dyn_peer[133]  lookupTimeSig:vector  ETV
vector 116269  Network.dyn_peer[134]  lookupHopsSig:vector  ETV
vector 116268  Network.dyn_peer[134]  lookupTimeSig:vector  ETV
vector 116271  Network.dyn_peer[135]  lookupHopsSig:vector  ETV
vector 116270  Network.dyn_peer[135]  lookupTimeSig:vector  ETV
vector 116273  Network.dyn_peer[136]  lookupHopsSig:vector  ETV
vector 116272  Network.dyn_peer[136]  lookupTimeSig:vector  ETV
vector 116275  Network.dyn_peer[137]  lookupHopsSig:vector  ETV
vector 116274  Network.dyn_peer[137]  lookupTimeSig:vector  ETV
vector 116277  Network.dyn_peer[138]  lookupHopsSig:vector  ETV
vector 116276  Network.dyn_peer[138]  lookupTimeSig:vector  ETV
vector 116279  Network.dyn_peer[139]  lookupHopsSig:vector  ETV
vector 116278  Network.dyn_peer[139]  lookupTimeSig:vector  ETV
vector 116281  Network.dyn_peer[140]  lookupHopsSig:vector  ETV
vector 116280  Network.dyn_peer[140]  lookupTimeSig:vector  ETV
vector 116283  Network.dyn_peer[141]  lookupHopsSig:vector  ETV
vector 116282  Network.dyn_peer[141]  lookupTimeSig:vector  ETV
vector 116285  Network.dyn_peer[142]  lookupHopsSig:vector  ETV
vector 116284  Network.dyn_peer[142]  lookupTimeSig:vector  ETV
vector 116287  Network.dyn_peer[143]  lookupHopsSig:vector  ETV
vector 116286  Network.dyn_peer[143]  lookupTimeSig:vector  ETV
vector 116289  Network.dyn_peer[144]  lookupHopsSig:vector  ETV
vector 116288  Network.dyn_peer[144]  lookupTimeSig:vector  ETV
vector 116291  Network.dyn_peer[145]  lookupHopsSig:vector  ETV
vector 116290  Network.dyn_peer[145]  lookupTimeSig:vector  ETV
vector 116293  Network.dyn_peer[146]  lookupHopsSig:vector  ETV
vector 116292  Network.dyn_peer[146]  lookupTimeSig:vector  ETV
vector 116295  Network.dyn_peer[147]  lookupHopsSig:vector  ETV
vector 116294  Network.dyn_peer[147]  lookupTimeSig:vector  ETV
vector 116297  Network.dyn_peer[148]  lookupHopsSig:vector  ETV
vector 116296  Network.dyn_peer[148]  lookupTimeSig:vector  ETV
vector 116299  Network.dyn_peer[149]  lookupHopsSig:vector  ETV
vector 116298  Network.dyn_peer[149]  lookupTimeSig:vector  ETV
vector 116301  Network.dyn_peer[150]  lookupHopsSig:vector  ETV
vector 116300  Network.dyn_peer[150]  lookupTimeSig:vector  ETV
vector 116303  Network.dyn_peer[151]  lookupHopsSig:vector  ETV
vector 116302  Network.dyn_peer[151]  lookupTimeSig:vector  ETV
vector 116305  Network.dyn_peer[152]  lookupHopsSig:vector  ETV
vector 116304  Network.dyn_peer[152]  lookupTimeSig:vector  ETV
vector 116307  Network.dyn_peer[153]  lookupHopsSig:vector  ETV
vector 116306  Network.dyn_peer[153]  lookupTimeSig:vector  ETV
vector 116309  Network.dyn_peer[154]  lookupHopsSig:vector  ETV
vector 116308  Network.dyn_peer[154]  lookupTimeSig:vector  ETV
vector 116311  Network.dyn_peer[155]  lookupHopsSig:vector  ETV
vector 116310  Network.dyn_peer[155]  lookupTimeSig:vector  ETV
vector 116313  Network.dyn_peer[156]  lookupHopsSig:vector  ETV
vector 116312  Network.dyn_peer[156]  lookupTimeSig:vector  ETV
vector 116315  Network.dyn_peer[157]  lookupHopsSig:vector  ETV
vector 116314  Network.dyn_peer[157]  lookupTimeSig:vector  ETV
vector 116317  Network.dyn_peer[158]  lookupHopsSig:vector  ETV
vector 116316  Network.dyn_peer[158]  lookupTimeSig:vector  ETV
vector 116319  Network.dyn_peer[159]  lookupHopsSig:vector  ETV
vector 116318  Network.dyn_peer[159]  lookupTimeSig:vector  ETV
vector 116321  Network.dyn_peer[160]  lookupHopsSig:vector  ETV
vector 116320  Network.dyn_peer[160]  lookupTimeSig:vector  ETV
vector 116323  Network.dyn_peer[161]  lookupHopsSig:vector  ETV
vector 116322  Network.dyn_peer[161]  lookupTimeSig:vector  ETV
vector 116325  Network.dyn_peer[162]  lookupHopsSig:vector  ETV
vector 116324  Network.dyn_peer[162]  lookupTimeSig:vector  ETV
vector 116327  Network.dyn_peer[163]  lookupHopsSig:vector  ETV
vector 116326  Network.dyn_peer[163]  lookupTimeSig:vector  ETV
vector 116329  Network.dyn_peer[164]  lookupHopsSig:vector  ETV
vector 116328  Network.dyn_peer[164]  lookupTimeSig:vector  ETV
vector 116331  Network.dyn_peer[165]  lookupHopsSig:vector  ETV
vector 116330  Network.dyn_peer[165]  lookupTimeSig:vector  ETV
vector 116333  Network.dyn_peer[166]  lookupHopsSig:vector  ETV
vector 116332  Network.dyn_peer[166]  lookupTimeSig:vector  ETV
vector 116335  Network.dyn_peer[167]  lookupHopsSig:vector  ETV
vector 116334  Network.dyn_peer[167]  lookupTimeSig:vector  ETV
vector 116337  Network.dyn_peer[168]  lookupHopsSig:vector  ETV
vector 116336  Network.dyn_peer[168]  lookupTimeSig:vector  ETV
vector 116339  Network.dyn_peer[169]  lookupHopsSig:vector  ETV
vector 116338  Network.dyn_peer[169]  lookupTimeSig:vector  ETV
vector 116341  Network.dyn_peer[170]  lookupHopsSig:vector  ETV
vector 116340  Network.dyn_peer[170]  lookupTimeSig:vector  ETV
vector 116343  Network.dyn_peer[171]  lookupHopsSig:vector  ETV
vector 116342  Network.dyn_peer[171]  lookupTimeSig:vector  ETV
vector 116345  Network.dyn_peer[172]  lookupHopsSig:vector  ETV
vector 116344  Network.dyn_peer[172]  lookupTimeSig:vector  ETV
vector 116347  Network.dyn_peer[173]  lookupHopsSig:vector  ETV
vector 116346  Network.dyn_peer[173]  lookupTimeSig:vector  ETV
vector 116349  Network.dyn_peer[174]  lookupHopsSig:vector  ETV
vector 116348  Network.dyn_peer[174]  lookupTimeSig:vector  ETV
vector 116351  Network.dyn_peer[175]  lookupHopsSig:vector  ETV
vector 116350  Network.dyn_peer[175]  lookupTimeSig:vector  ETV
vector 116353  Network.dyn_peer[176]  lookupHopsSig:vector  ETV
vector 116352  Network.dyn_peer[176]  lookupTimeSig:vector  ETV
vector 116355  Network.dyn_peer[177]  lookupHopsSig:vector  ETV
vector 116354  Network.dyn_peer[177]  lookupTimeSig:vector  ETV
vector 116357  Network.dyn_peer[178]  lookupHopsSig:vector  ETV
vector 116356  Network.dyn_peer[178]  lookupTimeSig:vector  ETV
vector 116359  Network.dyn_peer[179]  lookupHopsSig:vector  ETV
vector 116358  Network.dyn_peer[179]  lookupTimeSig:vector  ETV
vector 116361  Network.dyn_peer[180]  lookupHopsSig:vector  ETV
vector 116360  Network.dyn_peer[180]  lookupTimeSig:vector  ETV
vector 116363  Network.dyn_peer[181]  lookupHopsSig:vector  ETV
vector 116362  Network.dyn_peer[181]  lookupTimeSig:vector  ETV
vector 116365  Network.dyn_peer[182]  lookupHopsSig:vector  ETV
vector 116364  Network.dyn_peer[182]  lookupTimeSig:vector  ETV
vector 116367  Network.dyn_peer[183]  lookupHopsSig:vector  ETV
vector 116366  Network.dyn_peer[183]  lookupTimeSig:vector  ETV
vector 116369  Network.dyn_peer[184]  lookupHopsSig:vector  ETV
vector 116368  Network.dyn_peer[184]  lookupTimeSig:vector  ETV
vector 116371  Network.dyn_peer[185]  lookupHopsSig:vector  ETV
vector 116370  Network.dyn_peer[185]  lookupTimeSig:vector  ETV
vector 116373  Network.dyn_peer[186]  lookupHopsSig:vector  ETV
vector 116372  Network.dyn_peer[186]  lookupTimeSig:vector  ETV
vector 116375  Network.dyn_peer[187]  lookupHopsSig:vector  ETV
vector 116374  Network.dyn_peer[187]  lookupTimeSig:vector  ETV
vector 116377  Network.dyn_peer[188]  lookupHopsSig:vector  ETV
vector 116376  Network.dyn_peer[188]  lookupTimeSig:vector  ETV
vector 116379  Network.dyn_peer[189]  lookupHopsSig:vector  ETV
vector 116378  Network.dyn_peer[189]  lookupTimeSig:vector  ETV
vector 116381  Network.dyn_peer[190]  lookupHopsSig:vector  ETV
vector 116380  Network.dyn_peer[190]  lookupTimeSig:vector  ETV
vector 116383  Network.dyn_peer[191]  lookupHopsSig:vector  ETV
vector 116382  Network.dyn_peer[191]  lookupTimeSig:vector  ETV
vector 116385  Network.dyn_peer[192]  lookupHopsSig:vector  ETV
vector 116384  Network.dyn_peer[192]  lookupTimeSig:vector  ETV
vector 116387  Network.dyn_peer[193]  lookupHopsSig:vector  ETV
vector 116386  Network.dyn_peer[193]  lookupTimeSig:vector  ETV
vector 116389  Network.dyn_peer[194]  lookupHopsSig:vector  ETV
vector 116388  Network.dyn_peer[194]  lookupTimeSig:vector  ETV
vector 116391  Network.dyn_peer[195]  lookupHopsSig:vector  ETV
vector 116390  Network.dyn_peer[195]  lookupTimeSig:vector  ETV
vector 116393  Network.dyn_peer[196]  lookupHopsSig:vector  ETV
vector 116392  Network.dyn_peer[196]  lookupTimeSig:vector  ETV
vector 116395  Network.dyn_peer[197]  lookupHopsSig:vector  ETV
vector 116394  Network.dyn_peer[197]  lookupTimeSig:vector  ETV
vector 116397  Network.dyn_peer[198]  lookupHopsSig:vector  ETV
vector 116396  Network.dyn_peer[198]  lookupTimeSig:vector  ETV
vector 116399  Network.dyn_peer[199]  lookupHopsSig:vector  ETV
vector 116398  Network.dyn_peer[199]  lookupTimeSig:vector  ETV
vector 116401  Network.dyn_peer[200]  lookupHopsSig:vector  ETV
vector 116400  Network.dyn_peer[200]  lookupTimeSig:vector  ETV
vector 116403  Network.dyn_peer[201]  lookupHopsSig:vector  ETV
vector 116402  Network.dyn_peer[201]  lookupTimeSig:vector  ETV
vector 116405  Network.dyn_peer[202]  lookupHopsSig:vector  ETV
vector 116404  Network.dyn_peer[202]  lookupTimeSig:vector  ETV
vector 116407  Network.dyn_peer[203]  lookupHopsSig:vector  ETV
vector 116406  Network.dyn_peer[203]  lookupTimeSig:vector  ETV
vector 116409  Network.dyn_peer[204]  lookupHopsSig:vector  ETV
vector 116408  Network.dyn_peer[204]  lookupTimeSig:vector  ETV
vector 116411  Network.dyn_peer[205]  lookupHopsSig:vector  ETV
vector 116410  Network.dyn_peer[205]  lookupTimeSig:vector  ETV
vector 116413  Network.dyn_peer[206]  lookupHopsSig:vector  ETV
vector 116412  Network.dyn_peer[206]  lookupTimeSig:vector  ETV
vector 116415  Network.dyn_peer[207]  lookupHopsSig:vector  ETV
vector 116414  Network.dyn_peer[207]  lookupTimeSig:vector  ETV
vector 116417  Network.dyn_peer[208]  lookupHopsSig:vector  ETV
vector 116416  Network.dyn_peer[208]  lookupTimeSig:vector  ETV
vector 116419  Network.dyn_peer[209]  lookupHopsSig:vector  ETV
vector 116418  Network.dyn_peer[209]  lookupTimeSig:vector  ETV
vector 116421  Network.dyn_peer[210]  lookupHopsSig:vector  ETV
vector 116420  Network.dyn_peer[210]  lookupTimeSig:vector  ETV
vector 116423  Network.dyn_peer[211]  lookupHopsSig:vector  ETV
vector 116422  Network.dyn_peer[211]  lookupTimeSig:vector  ETV
vector 116425  Network.dyn_peer[212]  lookupHopsSig:vector  ETV
vector 116424  Network.dyn_peer[212]  lookupTimeSig:vector  ETV
vector 116427  Network.dyn_peer[213]  lookupHopsSig:vector  ETV
vector 116426  Network.dyn_peer[213]  lookupTimeSig:vector  ETV
vector 116429  Network.dyn_peer[214]  lookupHopsSig:vector  ETV
vector 116428  Network.dyn_peer[214]  lookupTimeSig:vector  ETV
vector 116431  Network.dyn_peer[215]  lookupHopsSig:vector  ETV
vector 116430  Network.dyn_peer[215]  lookupTimeSig:vector  ETV
vector 116433  Network.dyn_peer[216]  lookupHopsSig:vector  ETV
vector 116432  Network.dyn_peer[216]  lookupTimeSig:vector  ETV
vector 116435  Network.dyn_peer[217]  lookupHopsSig:vector  ETV
vector 116434  Network.dyn_peer[217]  lookupTimeSig:vector  ETV
vector 116437  Network.dyn_peer[218]  lookupHopsSig:vector  ETV
vector 116436  Network.dyn_peer[218]  lookupTimeSig:vector  ETV
vector 116439  Network.dyn_peer[219]  lookupHopsSig:vector  ETV
vector 116438  Network.dyn_peer[219]  lookupTimeSig:vector  ETV
vector 116441  Network.dyn_peer[220]  lookupHopsSig:vector  ETV
vector 116440  Network.dyn_peer[220]  lookupTimeSig:vector  ETV
vector 116443  Network.dyn_peer[221]  lookupHopsSig:vector  ETV
vector 116442  Network.dyn_peer[221]  lookupTimeSig:vector  ETV
vector 116445  Network.dyn_peer[222]  lookupHopsSig:vector  ETV
vector 116444  Network.dyn_peer[222]  lookupTimeSig:vector  ETV
vector 116447  Network.dyn_peer[223]  lookupHopsSig:vector  ETV
vector 116446  Network.dyn_peer[223]  lookupTimeSig:vector  ETV
vector 116449  Network.dyn_peer[224]  lookupHopsSig:vector  ETV
vector 116448  Network.dyn_peer[224]  lookupTimeSig:vector  ETV
vector 116451  Network.dyn_peer[225]  lookupHopsSig:vector  ETV
vector 116450  Network.dyn_peer[225]  lookupTimeSig:vector  ETV
vector 116453  Network.dyn_peer[226]  lookupHopsSig:vector  ETV
vector 116452  Network.dyn_peer[226]  lookupTimeSig:vector  ETV
vector 116455  Network.dyn_peer[227]  lookupHopsSig:vector  ETV
vector 116454  Network.dyn_peer[227]  lookupTimeSig:vector  ETV
vector 116457  Network.dyn_peer[228]  lookupHopsSig:vector  ETV
vector 116456  Network.dyn_peer[228]  lookupTimeSig:vector  ETV
vector 116459  Network.dyn_peer[229]  lookupHopsSig:vector  ETV
vector 116458  Network.dyn_peer[229]  lookupTimeSig:vector  ETV
vector 116461  Network.dyn_peer[230]  lookupHopsSig:vector  ETV
vector 116460  Network.dyn_peer[230]  lookupTimeSig:vector  ETV
vector 116463  Network.dyn_peer[231]  lookupHopsSig:vector  ETV
vector 116462  Network.dyn_peer[231]  lookupTimeSig:vector  ETV
vector 116465  Network.dyn_peer[232]  lookupHopsSig:vector  ETV
vector 116464  Network.dyn_peer[232]  lookupTimeSig:vector  ETV