version 2
run Stability-114-20130521-22:31:23-23591
attr configname Stability
attr datetime 20130521-22:31:23
attr experiment Stability
attr inifile omnetpp.ini
attr iterationvars $0=1
attr iterationvars2 "$0=1, $repetition=24"
attr measurement $0=1
attr network Network
attr processid 23591
attr repetition 24
attr replication #24
attr resultdir results
attr runnumber 114
attr seedset 114

vector 228001  Network.dyn_peer[0]  lookupHopsSig:vector  ETV
vector 228000  Network.dyn_peer[0]  lookupTimeSig:vector  ETV
vector 228003  Network.dyn_peer[1]  lookupHopsSig:vector  ETV
vector 228002  Network.dyn_peer[1]  lookupTimeSig:vector  ETV
vector 228005  Network.dyn_peer[2]  lookupHopsSig:vector  ETV
vector 228004  Network.dyn_peer[2]  lookupTimeSig:vector  ETV
vector 228007  Network.dyn_peer[3]  lookupHopsSig:vector  ETV
vector 228006  Network.dyn_peer[3]  lookupTimeSig:vector  ETV
vector 228009  Network.dyn_peer[4]  lookupHopsSig:vector  ETV
vector 228008  Network.dyn_peer[4]  lookupTimeSig:vector  ETV
vector 228011  Network.dyn_peer[5]  lookupHopsSig:vector  ETV
vector 228010  Network.dyn_peer[5]  lookupTimeSig:vector  ETV
vector 228013  Network.dyn_peer[6]  lookupHopsSig:vector  ETV
vector 228012  Network.dyn_peer[6]  lookupTimeSig:vector  ETV
vector 228015  Network.dyn_peer[7]  lookupHopsSig:vector  ETV
vector 228014  Network.dyn_peer[7]  lookupTimeSig:vector  ETV
vector 228017  Network.dyn_peer[8]  lookupHopsSig:vector  ETV
vector 228016  Network.dyn_peer[8]  lookupTimeSig:vector  ETV
vector 228019  Network.dyn_peer[9]  lookupHopsSig:vector  ETV
vector 228018  Network.dyn_peer[9]  lookupTimeSig:vector  ETV
vector 228021  Network.dyn_peer[10]  lookupHopsSig:vector  ETV
vector 228020  Network.dyn_peer[10]  lookupTimeSig:vector  ETV
vector 228023  Network.dyn_peer[11]  lookupHopsSig:vector  ETV
vector 228022  Network.dyn_peer[11]  lookupTimeSig:vector  ETV
vector 228025  Network.dyn_peer[12]  lookupHopsSig:vector  ETV
vector 228024  Network.dyn_peer[12]  lookupTimeSig:vector  ETV
vector 228027  Network.dyn_peer[13]  lookupHopsSig:vector  ETV
vector 228026  Network.dyn_peer[13]  lookupTimeSig:vector  ETV
vector 228029  Network.dyn_peer[14]  lookupHopsSig:vector  ETV
vector 228028  Network.dyn_peer[14]  lookupTimeSig:vector  ETV
vector 228031  Network.dyn_peer[15]  lookupHopsSig:vector  ETV
vector 228030  Network.dyn_peer[15]  lookupTimeSig:vector  ETV
vector 228033  Network.dyn_peer[16]  lookupHopsSig:vector  ETV
vector 228032  Network.dyn_peer[16]  lookupTimeSig:vector  ETV
vector 228035  Network.dyn_peer[17]  lookupHopsSig:vector  ETV
vector 228034  Network.dyn_peer[17]  lookupTimeSig:vector  ETV
vector 228037  Network.dyn_peer[18]  lookupHopsSig:vector  ETV
vector 228036  Network.dyn_peer[18]  lookupTimeSig:vector  ETV
vector 228039  Network.dyn_peer[19]  lookupHopsSig:vector  ETV
vector 228038  Network.dyn_peer[19]  lookupTimeSig:vector  ETV
vector 228041  Network.dyn_peer[20]  lookupHopsSig:vector  ETV
vector 228040  Network.dyn_peer[20]  lookupTimeSig:vector  ETV
vector 228043  Network.dyn_peer[21]  lookupHopsSig:vector  ETV
vector 228042  Network.dyn_peer[21]  lookupTimeSig:vector  ETV
vector 228045  Network.dyn_peer[22]  lookupHopsSig:vector  ETV
vector 228044  Network.dyn_peer[22]  lookupTimeSig:vector  ETV
vector 228047  Network.dyn_peer[23]  lookupHopsSig:vector  ETV
vector 228046  Network.dyn_peer[23]  lookupTimeSig:vector  ETV
vector 228049  Network.dyn_peer[24]  lookupHopsSig:vector  ETV
vector 228048  Network.dyn_peer[24]  lookupTimeSig:vector  ETV
vector 228051  Network.dyn_peer[25]  lookupHopsSig:vector  ETV
vector 228050  Network.dyn_peer[25]  lookupTimeSig:vector  ETV
vector 228053  Network.dyn_peer[26]  lookupHopsSig:vector  ETV
vector 228052  Network.dyn_peer[26]  lookupTimeSig:vector  ETV
vector 228055  Network.dyn_peer[27]  lookupHopsSig:vector  ETV
vector 228054  Network.dyn_peer[27]  lookupTimeSig:vector  ETV
vector 228057  Network.dyn_peer[28]  lookupHopsSig:vector  ETV
vector 228056  Network.dyn_peer[28]  lookupTimeSig:vector  ETV
vector 228059  Network.dyn_peer[29]  lookupHopsSig:vector  ETV
vector 228058  Network.dyn_peer[29]  lookupTimeSig:vector  ETV
vector 228061  Network.dyn_peer[30]  lookupHopsSig:vector  ETV
vector 228060  Network.dyn_peer[30]  lookupTimeSig:vector  ETV
vector 228063  Network.dyn_peer[31]  lookupHopsSig:vector  ETV
vector 228062  Network.dyn_peer[31]  lookupTimeSig:vector  ETV
vector 228065  Network.dyn_peer[32]  lookupHopsSig:vector  ETV
vector 228064  Network.dyn_peer[32]  lookupTimeSig:vector  ETV
vector 228067  Network.dyn_peer[33]  lookupHopsSig:vector  ETV
vector 228066  Network.dyn_peer[33]  lookupTimeSig:vector  ETV
vector 228069  Network.dyn_peer[34]  lookupHopsSig:vector  ETV
vector 228068  Network.dyn_peer[34]  lookupTimeSig:vector  ETV
vector 228071  Network.dyn_peer[35]  lookupHopsSig:vector  ETV
vector 228070  Network.dyn_peer[35]  lookupTimeSig:vector  ETV
vector 228073  Network.dyn_peer[36]  lookupHopsSig:vector  ETV
vector 228072  Network.dyn_peer[36]  lookupTimeSig:vector  ETV
vector 228075  Network.dyn_peer[37]  lookupHopsSig:vector  ETV
vector 228074  Network.dyn_peer[37]  lookupTimeSig:vector  ETV
vector 228077  Network.dyn_peer[38]  lookupHopsSig:vector  ETV
vector 228076  Network.dyn_peer[38]  lookupTimeSig:vector  ETV
vector 228079  Network.dyn_peer[39]  lookupHopsSig:vector  ETV
vector 228078  Network.dyn_peer[39]  lookupTimeSig:vector  ETV
vector 228081  Network.dyn_peer[40]  lookupHopsSig:vector  ETV
vector 228080  Network.dyn_peer[40]  lookupTimeSig:vector  ETV
vector 228083  Network.dyn_peer[41]  lookupHopsSig:vector  ETV
vector 228082  Network.dyn_peer[41]  lookupTimeSig:vector  ETV
vector 228085  Network.dyn_peer[42]  lookupHopsSig:vector  ETV
vector 228084  Network.dyn_peer[42]  lookupTimeSig:vector  ETV
vector 228087  Network.dyn_peer[43]  lookupHopsSig:vector  ETV
vector 228086  Network.dyn_peer[43]  lookupTimeSig:vector  ETV
vector 228089  Network.dyn_peer[44]  lookupHopsSig:vector  ETV
vector 228088  Network.dyn_peer[44]  lookupTimeSig:vector  ETV
vector 228091  Network.dyn_peer[45]  lookupHopsSig:vector  ETV
vector 228090  Network.dyn_peer[45]  lookupTimeSig:vector  ETV
vector 228093  Network.dyn_peer[46]  lookupHopsSig:vector  ETV
vector 228092  Network.dyn_peer[46]  lookupTimeSig:vector  ETV
vector 228095  Network.dyn_peer[47]  lookupHopsSig:vector  ETV
vector 228094  Network.dyn_peer[47]  lookupTimeSig:vector  ETV
vector 228097  Network.dyn_peer[48]  lookupHopsSig:vector  ETV
vector 228096  Network.dyn_peer[48]  lookupTimeSig:vector  ETV
vector 228099  Network.dyn_peer[49]  lookupHopsSig:vector  ETV
vector 228098  Network.dyn_peer[49]  lookupTimeSig:vector  ETV
vector 228101  Network.dyn_peer[50]  lookupHopsSig:vector  ETV
vector 228100  Network.dyn_peer[50]  lookupTimeSig:vector  ETV
vector 228103  Network.dyn_peer[51]  lookupHopsSig:vector  ETV
vector 228102  Network.dyn_peer[51]  lookupTimeSig:vector  ETV
vector 228105  Network.dyn_peer[52]  lookupHopsSig:vector  ETV
vector 228104  Network.dyn_peer[52]  lookupTimeSig:vector  ETV
vector 228107  Network.dyn_peer[53]  lookupHopsSig:vector  ETV
vector 228106  Network.dyn_peer[53]  lookupTimeSig:vector  ETV
vector 228109  Network.dyn_peer[54]  lookupHopsSig:vector  ETV
vector 228108  Network.dyn_peer[54]  lookupTimeSig:vector  ETV
vector 228111  Network.dyn_peer[55]  lookupHopsSig:vector  ETV
vector 228110  Network.dyn_peer[55]  lookupTimeSig:vector  ETV
vector 228113  Network.dyn_peer[56]  lookupHopsSig:vector  ETV
vector 228112  Network.dyn_peer[56]  lookupTimeSig:vector  ETV
vector 228115  Network.dyn_peer[57]  lookupHopsSig:vector  ETV
vector 228114  Network.dyn_peer[57]  lookupTimeSig:vector  ETV
vector 228117  Network.dyn_peer[58]  lookupHopsSig:vector  ETV
vector 228116  Network.dyn_peer[58]  lookupTimeSig:vector  ETV
vector 228119  Network.dyn_peer[59]  lookupHopsSig:vector  ETV
vector 228118  Network.dyn_peer[59]  lookupTimeSig:vector  ETV
vector 228121  Network.dyn_peer[60]  lookupHopsSig:vector  ETV
vector 228120  Network.dyn_peer[60]  lookupTimeSig:vector  ETV
vector 228123  Network.dyn_peer[61]  lookupHopsSig:vector  ETV
vector 228122  Network.dyn_peer[61]  lookupTimeSig:vector  ETV
vector 228125  Network.dyn_peer[62]  lookupHopsSig:vector  ETV
vector 228124  Network.dyn_peer[62]  lookupTimeSig:vector  ETV
vector 228127  Network.dyn_peer[63]  lookupHopsSig:vector  ETV
vector 228126  Network.dyn_peer[63]  lookupTimeSig:vector  ETV
vector 228129  Network.dyn_peer[64]  lookupHopsSig:vector  ETV
vector 228128  Network.dyn_peer[64]  lookupTimeSig:vector  ETV
vector 228131  Network.dyn_peer[65]  lookupHopsSig:vector  ETV
vector 228130  Network.dyn_peer[65]  lookupTimeSig:vector  ETV
vector 228133  Network.dyn_peer[66]  lookupHopsSig:vector  ETV
vector 228132  Network.dyn_peer[66]  lookupTimeSig:vector  ETV
vector 228135  Network.dyn_peer[67]  lookupHopsSig:vector  ETV
vector 228134  Network.dyn_peer[67]  lookupTimeSig:vector  ETV
vector 228137  Network.dyn_peer[68]  lookupHopsSig:vector  ETV
vector 228136  Network.dyn_peer[68]  lookupTimeSig:vector  ETV
vector 228139  Network.dyn_peer[69]  lookupHopsSig:vector  ETV
vector 228138  Network.dyn_peer[69]  lookupTimeSig:vector  ETV
vector 228141  Network.dyn_peer[70]  lookupHopsSig:vector  ETV
vector 228140  Network.dyn_peer[70]  lookupTimeSig:vector  ETV
vector 228143  Network.dyn_peer[71]  lookupHopsSig:vector  ETV
vector 228142  Network.dyn_peer[71]  lookupTimeSig:vector  ETV
vector 228145  Network.dyn_peer[72]  lookupHopsSig:vector  ETV
vector 228144  Network.dyn_peer[72]  lookupTimeSig:vector  ETV
vector 228147  Network.dyn_peer[73]  lookupHopsSig:vector  ETV
vector 228146  Network.dyn_peer[73]  lookupTimeSig:vector  ETV
vector 228149  Network.dyn_peer[74]  lookupHopsSig:vector  ETV
vector 228148  Network.dyn_peer[74]  lookupTimeSig:vector  ETV
vector 228151  Network.dyn_peer[75]  lookupHopsSig:vector  ETV
vector 228150  Network.dyn_peer[75]  lookupTimeSig:vector  ETV
vector 228153  Network.dyn_peer[76]  lookupHopsSig:vector  ETV
vector 228152  Network.dyn_peer[76]  lookupTimeSig:vector  ETV
vector 228155  Network.dyn_peer[77]  lookupHopsSig:vector  ETV
vector 228154  Network.dyn_peer[77]  lookupTimeSig:vector  ETV
vector 228157  Network.dyn_peer[78]  lookupHopsSig:vector  ETV
vector 228156  Network.dyn_peer[78]  lookupTimeSig:vector  ETV
vector 228159  Network.dyn_peer[79]  lookupHopsSig:vector  ETV
vector 228158  Network.dyn_peer[79]  lookupTimeSig:vector  ETV
vector 228161  Network.dyn_peer[80]  lookupHopsSig:vector  ETV
vector 228160  Network.dyn_peer[80]  lookupTimeSig:vector  ETV
vector 228163  Network.dyn_peer[81]  lookupHopsSig:vector  ETV
vector 228162  Network.dyn_peer[81]  lookupTimeSig:vector  ETV
vector 228165  Network.dyn_peer[82]  lookupHopsSig:vector  ETV
vector 228164  Network.dyn_peer[82]  lookupTimeSig:vector  ETV
vector 228167  Network.dyn_peer[83]  lookupHopsSig:vector  ETV
vector 228166  Network.dyn_peer[83]  lookupTimeSig:vector  ETV
vector 228169  Network.dyn_peer[84]  lookupHopsSig:vector  ETV
vector 228168  Network.dyn_peer[84]  lookupTimeSig:vector  ETV
vector 228171  Network.dyn_peer[85]  lookupHopsSig:vector  ETV
vector 228170  Network.dyn_peer[85]  lookupTimeSig:vector  ETV
vector 228173  Network.dyn_peer[86]  lookupHopsSig:vector  ETV
vector 228172  Network.dyn_peer[86]  lookupTimeSig:vector  ETV
vector 228175  Network.dyn_peer[87]  lookupHopsSig:vector  ETV
vector 228174  Network.dyn_peer[87]  lookupTimeSig:vector  ETV
vector 228177  Network.dyn_peer[88]  lookupHopsSig:vector  ETV
vector 228176  Network.dyn_peer[88]  lookupTimeSig:vector  ETV
vector 228179  Network.dyn_peer[89]  lookupHopsSig:vector  ETV
vector 228178  Network.dyn_peer[89]  lookupTimeSig:vector  ETV
vector 228181  Network.dyn_peer[90]  lookupHopsSig:vector  ETV
vector 228180  Network.dyn_peer[90]  lookupTimeSig:vector  ETV
vector 228183  Network.dyn_peer[91]  lookupHopsSig:vector  ETV
vector 228182  Network.dyn_peer[91]  lookupTimeSig:vector  ETV
vector 228185  Network.dyn_peer[92]  lookupHopsSig:vector  ETV
vector 228184  Network.dyn_peer[92]  lookupTimeSig:vector  ETV
vector 228187  Network.dyn_peer[93]  lookupHopsSig:vector  ETV
vector 228186  Network.dyn_peer[93]  lookupTimeSig:vector  ETV
vector 228189  Network.dyn_peer[94]  lookupHopsSig:vector  ETV
vector 228188  Network.dyn_peer[94]  lookupTimeSig:vector  ETV
vector 228191  Network.dyn_peer[95]  lookupHopsSig:vector  ETV
vector 228190  Network.dyn_peer[95]  lookupTimeSig:vector  ETV
vector 228193  Network.dyn_peer[96]  lookupHopsSig:vector  ETV
vector 228192  Network.dyn_peer[96]  lookupTimeSig:vector  ETV
vector 228195  Network.dyn_peer[97]  lookupHopsSig:vector  ETV
vector 228194  Network.dyn_peer[97]  lookupTimeSig:vector  ETV
vector 228197  Network.dyn_peer[98]  lookupHopsSig:vector  ETV
vector 228196  Network.dyn_peer[98]  lookupTimeSig:vector  ETV
vector 228199  Network.dyn_peer[99]  lookupHopsSig:vector  ETV
vector 228198  Network.dyn_peer[99]  lookupTimeSig:vector  ETV
vector 228201  Network.dyn_peer[100]  lookupHopsSig:vector  ETV
vector 228200  Network.dyn_peer[100]  lookupTimeSig:vector  ETV
vector 228203  Network.dyn_peer[101]  lookupHopsSig:vector  ETV
vector 228202  Network.dyn_peer[101]  lookupTimeSig:vector  ETV
vector 228205  Network.dyn_peer[102]  lookupHopsSig:vector  ETV
vector 228204  Network.dyn_peer[102]  lookupTimeSig:vector  ETV
vector 228207  Network.dyn_peer[103]  lookupHopsSig:vector  ETV
vector 228206  Network.dyn_peer[103]  lookupTimeSig:vector  ETV
vector 228209  Network.dyn_peer[104]  lookupHopsSig:vector  ETV
vector 228208  Network.dyn_peer[104]  lookupTimeSig:vector  ETV
vector 228211  Network.dyn_peer[105]  lookupHopsSig:vector  ETV
vector 228210  Network.dyn_peer[105]  lookupTimeSig:vector  ETV
vector 228213  Network.dyn_peer[106]  lookupHopsSig:vector  ETV
vector 228212  Network.dyn_peer[106]  lookupTimeSig:vector  ETV
vector 228215  Network.dyn_peer[107]  lookupHopsSig:vector  ETV
vector 228214  Network.dyn_peer[107]  lookupTimeSig:vector  ETV
vector 228219  Network.dyn_peer[109]  lookupHopsSig:vector  ETV
vector 228218  Network.dyn_peer[109]  lookupTimeSig:vector  ETV
vector 228217  Network.dyn_peer[108]  lookupHopsSig:vector  ETV
vector 228216  Network.dyn_peer[108]  lookupTimeSig:vector  ETV
vector 228221  Network.dyn_peer[110]  lookupHopsSig:vector  ETV
vector 228220  Network.dyn_peer[110]  lookupTimeSig:vector  ETV
vector 228223  Network.dyn_peer[111]  lookupHopsSig:vector  ETV
vector 228222  Network.dyn_peer[111]  lookupTimeSig:vector  ETV
vector 228225  Network.dyn_peer[112]  lookupHopsSig:vector  ETV
vector 228224  Network.dyn_peer[112]  lookupTimeSig:vector  ETV
vector 228227  Network.dyn_peer[113]  lookupHopsSig:vector  ETV
vector 228226  Network.dyn_peer[113]  lookupTimeSig:vector  ETV
vector 228229  Network.dyn_peer[114]  lookupHopsSig:vector  ETV
vector 228228  Network.dyn_peer[114]  lookupTimeSig:vector  ETV
vector 228231  Network.dyn_peer[115]  lookupHopsSig:vector  ETV
vector 228230  Network.dyn_peer[115]  lookupTimeSig:vector  ETV
vector 228233  Network.dyn_peer[116]  lookupHopsSig:vector  ETV
vector 228232  Network.dyn_peer[116]  lookupTimeSig:vector  ETV
vector 228235  Network.dyn_peer[117]  lookupHopsSig:vector  ETV
vector 228234  Network.dyn_peer[117]  lookupTimeSig:vector  ETV
vector 228237  Network.dyn_peer[118]  lookupHopsSig:vector  ETV
vector 228236  Network.dyn_peer[118]  lookupTimeSig:vector  ETV
vector 228239  Network.dyn_peer[119]  lookupHopsSig:vector  ETV
vector 228238  Network.dyn_peer[119]  lookupTimeSig:vector  ETV
vector 228241  Network.dyn_peer[120]  lookupHopsSig:vector  ETV
vector 228240  Network.dyn_peer[120]  lookupTimeSig:vector  ETV
vector 228243  Network.dyn_peer[121]  lookupHopsSig:vector  ETV
vector 228242  Network.dyn_peer[121]  lookupTimeSig:vector  ETV
vector 228245  Network.dyn_peer[122]  lookupHopsSig:vector  ETV
vector 228244  Network.dyn_peer[122]  lookupTimeSig:vector  ETV
vector 228247  Network.dyn_peer[123]  lookupHopsSig:vector  ETV
vector 228246  Network.dyn_peer[123]  lookupTimeSig:vector  ETV
vector 228249  Network.dyn_peer[124]  lookupHopsSig:vector  ETV
vector 228248  Network.dyn_peer[124]  lookupTimeSig:vector  ETV
vector 228251  Network.dyn_peer[125]  lookupHopsSig:vector  ETV
vector 228250  Network.dyn_peer[125]  lookupTimeSig:vector  ETV
vector 228255  Network.dyn_peer[127]  lookupHopsSig:vector  ETV
vector 228254  Network.dyn_peer[127]  lookupTimeSig:vector  ETV
vector 228253  Network.dyn_peer[126]  lookupHopsSig:vector  ETV
vector 228252  Network.dyn_peer[126]  lookupTimeSig:vector  ETV
vector 228257  Network.dyn_peer[128]  lookupHopsSig:vector  ETV
vector 228256  Network.dyn_peer[128]  lookupTimeSig:vector  ETV
vector 228259  Network.dyn_peer[129]  lookupHopsSig:vector  ETV
vector 228258  Network.dyn_peer[129]  lookupTimeSig:vector  ETV
vector 228261  Network.dyn_peer[130]  lookupHopsSig:vector  ETV
vector 228260  Network.dyn_peer[130]  lookupTimeSig:vector  ETV
vector 228263  Network.dyn_peer[131]  lookupHopsSig:vector  ETV
vector 228262  Network.dyn_peer[131]  lookupTimeSig:vector  ETV
vector 228265  Network.dyn_peer[132]  lookupHopsSig:vector  ETV
vector 228264  Network.dyn_peer[132]  lookupTimeSig:vector  ETV
vector 228267  Network.dyn_peer[133]  lookupHopsSig:vector  ETV
vector 228266  Network.dyn_peer[133]  lookupTimeSig:vector  ETV
vector 228269  Network.dyn_peer[134]  lookupHopsSig:vector  ETV
vector 228268  Network.dyn_peer[134]  lookupTimeSig:vector  ETV
vector 228271  Network.dyn_peer[135]  lookupHopsSig:vector  ETV
vector 228270  Network.dyn_peer[135]  lookupTimeSig:vector  ETV
vector 228273  Network.dyn_peer[136]  lookupHopsSig:vector  ETV
vector 228272  Network.dyn_peer[136]  lookupTimeSig:vector  ETV
vector 228275  Network.dyn_peer[137]  lookupHopsSig:vector  ETV
vector 228274  Network.dyn_peer[137]  lookupTimeSig:vector  ETV
vector 228277  Network.dyn_peer[138]  lookupHopsSig:vector  ETV
vector 228276  Network.dyn_peer[138]  lookupTimeSig:vector  ETV
vector 228279  Network.dyn_peer[139]  lookupHopsSig:vector  ETV
vector 228278  Network.dyn_peer[139]  lookupTimeSig:vector  ETV
vector 228281  Network.dyn_peer[140]  lookupHopsSig:vector  ETV
vector 228280  Network.dyn_peer[140]  lookupTimeSig:vector  ETV
vector 228283  Network.dyn_peer[141]  lookupHopsSig:vector  ETV
vector 228282  Network.dyn_peer[141]  lookupTimeSig:vector  ETV
vector 228285  Network.dyn_peer[142]  lookupHopsSig:vector  ETV
vector 228284  Network.dyn_peer[142]  lookupTimeSig:vector  ETV
vector 228287  Network.dyn_peer[143]  lookupHopsSig:vector  ETV
vector 228286  Network.dyn_peer[143]  lookupTimeSig:vector  ETV
vector 228289  Network.dyn_peer[144]  lookupHopsSig:vector  ETV
vector 228288  Network.dyn_peer[144]  lookupTimeSig:vector  ETV
vector 228291  Network.dyn_peer[145]  lookupHopsSig:vector  ETV
vector 228290  Network.dyn_peer[145]  lookupTimeSig:vector  ETV
vector 228293  Network.dyn_peer[146]  lookupHopsSig:vector  ETV
vector 228292  Network.dyn_peer[146]  lookupTimeSig:vector  ETV
vector 228295  Network.dyn_peer[147]  lookupHopsSig:vector  ETV
vector 228294  Network.dyn_peer[147]  lookupTimeSig:vector  ETV
vector 228297  Network.dyn_peer[148]  lookupHopsSig:vector  ETV
vector 228296  Network.dyn_peer[148]  lookupTimeSig:vector  ETV
vector 228299  Network.dyn_peer[149]  lookupHopsSig:vector  ETV
vector 228298  Network.dyn_peer[149]  lookupTimeSig:vector  ETV
vector 228301  Network.dyn_peer[150]  lookupHopsSig:vector  ETV
vector 228300  Network.dyn_peer[150]  lookupTimeSig:vector  ETV
vector 228303  Network.dyn_peer[151]  lookupHopsSig:vector  ETV
vector 228302  Network.dyn_peer[151]  lookupTimeSig:vector  ETV
vector 228305  Network.dyn_peer[152]  lookupHopsSig:vector  ETV
vector 228304  Network.dyn_peer[152]  lookupTimeSig:vector  ETV
vector 228307  Network.dyn_peer[153]  lookupHopsSig:vector  ETV
vector 228306  Network.dyn_peer[153]  lookupTimeSig:vector  ETV
vector 228309  Network.dyn_peer[154]  lookupHopsSig:vector  ETV
vector 228308  Network.dyn_peer[154]  lookupTimeSig:vector  ETV
vector 228311  Network.dyn_peer[155]  lookupHopsSig:vector  ETV
vector 228310  Network.dyn_peer[155]  lookupTimeSig:vector  ETV
vector 228313  Network.dyn_peer[156]  lookupHopsSig:vector  ETV
vector 228312  Network.dyn_peer[156]  lookupTimeSig:vector  ETV
vector 228315  Network.dyn_peer[157]  lookupHopsSig:vector  ETV
vector 228314  Network.dyn_peer[157]  lookupTimeSig:vector  ETV
vector 228317  Network.dyn_peer[158]  lookupHopsSig:vector  ETV
vector 228316  Network.dyn_peer[158]  lookupTimeSig:vector  ETV
vector 228319  Network.dyn_peer[159]  lookupHopsSig:vector  ETV
vector 228318  Network.dyn_peer[159]  lookupTimeSig:vector  ETV
vector 228321  Network.dyn_peer[160]  lookupHopsSig:vector  ETV
vector 228320  Network.dyn_peer[160]  lookupTimeSig:vector  ETV
vector 228323  Network.dyn_peer[161]  lookupHopsSig:vector  ETV
vector 228322  Network.dyn_peer[161]  lookupTimeSig:vector  ETV
vector 228325  Network.dyn_peer[162]  lookupHopsSig:vector  ETV
vector 228324  Network.dyn_peer[162]  lookupTimeSig:vector  ETV
vector 228327  Network.dyn_peer[163]  lookupHopsSig:vector  ETV
vector 228326  Network.dyn_peer[163]  lookupTimeSig:vector  ETV
vector 228329  Network.dyn_peer[164]  lookupHopsSig:vector  ETV
vector 228328  Network.dyn_peer[164]  lookupTimeSig:vector  ETV
vector 228331  Network.dyn_peer[165]  lookupHopsSig:vector  ETV
vector 228330  Network.dyn_peer[165]  lookupTimeSig:vector  ETV
vector 228333  Network.dyn_peer[166]  lookupHopsSig:vector  ETV
vector 228332  Network.dyn_peer[166]  lookupTimeSig:vector  ETV
vector 228335  Network.dyn_peer[167]  lookupHopsSig:vector  ETV
vector 228334  Network.dyn_peer[167]  lookupTimeSig:vector  ETV
vector 228337  Network.dyn_peer[168]  lookupHopsSig:vector  ETV
vector 228336  Network.dyn_peer[168]  lookupTimeSig:vector  ETV
vector 228339  Network.dyn_peer[169]  lookupHopsSig:vector  ETV
vector 228338  Network.dyn_peer[169]  lookupTimeSig:vector  ETV
vector 228341  Network.dyn_peer[170]  lookupHopsSig:vector  ETV
vector 228340  Network.dyn_peer[170]  lookupTimeSig:vector  ETV
vector 228343  Network.dyn_peer[171]  lookupHopsSig:vector  ETV
vector 228342  Network.dyn_peer[171]  lookupTimeSig:vector  ETV
vector 228345  Network.dyn_peer[172]  lookupHopsSig:vector  ETV
vector 228344  Network.dyn_peer[172]  lookupTimeSig:vector  ETV
vector 228347  Network.dyn_peer[173]  lookupHopsSig:vector  ETV
vector 228346  Network.dyn_peer[173]  lookupTimeSig:vector  ETV
vector 228349  Network.dyn_peer[174]  lookupHopsSig:vector  ETV
vector 228348  Network.dyn_peer[174]  lookupTimeSig:vector  ETV
vector 228351  Network.dyn_peer[175]  lookupHopsSig:vector  ETV
vector 228350  Network.dyn_peer[175]  lookupTimeSig:vector  ETV
vector 228353  Network.dyn_peer[176]  lookupHopsSig:vector  ETV
vector 228352  Network.dyn_peer[176]  lookupTimeSig:vector  ETV
vector 228355  Network.dyn_peer[177]  lookupHopsSig:vector  ETV
vector 228354  Network.dyn_peer[177]  lookupTimeSig:vector  ETV
vector 228357  Network.dyn_peer[178]  lookupHopsSig:vector  ETV
vector 228356  Network.dyn_peer[178]  lookupTimeSig:vector  ETV
vector 228361  Network.dyn_peer[180]  lookupHopsSig:vector  ETV
vector 228360  Network.dyn_peer[180]  lookupTimeSig:vector  ETV
vector 228359  Network.dyn_peer[179]  lookupHopsSig:vector  ETV
vector 228358  Network.dyn_peer[179]  lookupTimeSig:vector  ETV
vector 228363  Network.dyn_peer[181]  lookupHopsSig:vector  ETV
vector 228362  Network.dyn_peer[181]  lookupTimeSig:vector  ETV
vector 228365  Network.dyn_peer[182]  lookupHopsSig:vector  ETV
vector 228364  Network.dyn_peer[182]  lookupTimeSig:vector  ETV
vector 228367  Network.dyn_peer[183]  lookupHopsSig:vector  ETV
vector 228366  Network.dyn_peer[183]  lookupTimeSig:vector  ETV
vector 228369  Network.dyn_peer[184]  lookupHopsSig:vector  ETV
vector 228368  Network.dyn_peer[184]  lookupTimeSig:vector  ETV
vector 228371  Network.dyn_peer[185]  lookupHopsSig:vector  ETV
vector 228370  Network.dyn_peer[185]  lookupTimeSig:vector  ETV
vector 228373  Network.dyn_peer[186]  lookupHopsSig:vector  ETV
vector 228372  Network.dyn_peer[186]  lookupTimeSig:vector  ETV
vector 228375  Network.dyn_peer[187]  lookupHopsSig:vector  ETV
vector 228374  Network.dyn_peer[187]  lookupTimeSig:vector  ETV
vector 228379  Network.dyn_peer[189]  lookupHopsSig:vector  ETV
vector 228378  Network.dyn_peer[189]  lookupTimeSig:vector  ETV
vector 228377  Network.dyn_peer[188]  lookupHopsSig:vector  ETV
vector 228376  Network.dyn_peer[188]  lookupTimeSig:vector  ETV
vector 228381  Network.dyn_peer[190]  lookupHopsSig:vector  ETV
vector 228380  Network.dyn_peer[190]  lookupTimeSig:vector  ETV
vector 228383  Network.dyn_peer[191]  lookupHopsSig:vector  ETV
vector 228382  Network.dyn_peer[191]  lookupTimeSig:vector  ETV
vector 228385  Network.dyn_peer[192]  lookupHopsSig:vector  ETV
vector 228384  Network.dyn_peer[192]  lookupTimeSig:vector  ETV
vector 228387  Network.dyn_peer[193]  lookupHopsSig:vector  ETV
vector 228386  Network.dyn_peer[193]  lookupTimeSig:vector  ETV
vector 228389  Network.dyn_peer[194]  lookupHopsSig:vector  ETV
vector 228388  Network.dyn_peer[194]  lookupTimeSig:vector  ETV
vector 228391  Network.dyn_peer[195]  lookupHopsSig:vector  ETV
vector 228390  Network.dyn_peer[195]  lookupTimeSig:vector  ETV
vector 228393  Network.dyn_peer[196]  lookupHopsSig:vector  ETV
vector 228392  Network.dyn_peer[196]  lookupTimeSig:vector  ETV
vector 228395  Network.dyn_peer[197]  lookupHopsSig:vector  ETV
vector 228394  Network.dyn_peer[197]  lookupTimeSig:vector  ETV
vector 228397  Network.dyn_peer[198]  lookupHopsSig:vector  ETV
vector 228396  Network.dyn_peer[198]  lookupTimeSig:vector  ETV
vector 228399  Network.dyn_peer[199]  lookupHopsSig:vector  ETV
vector 228398  Network.dyn_peer[199]  lookupTimeSig:vector  ETV
vector 228401  Network.dyn_peer[200]  lookupHopsSig:vector  ETV
vector 228400  Network.dyn_peer[200]  lookupTimeSig:vector  ETV
vector 228403  Network.dyn_peer[201]  lookupHopsSig:vector  ETV
vector 228402  Network.dyn_peer[201]  lookupTimeSig:vector  ETV
vector 228405  Network.dyn_peer[202]  lookupHopsSig:vector  ETV
vector 228404  Network.dyn_peer[202]  lookupTimeSig:vector  ETV
vector 228407  Network.dyn_peer[203]  lookupHopsSig:vector  ETV
vector 228406  Network.dyn_peer[203]  lookupTimeSig:vector  ETV
vector 228409  Network.dyn_peer[204]  lookupHopsSig:vector  ETV
vector 228408  Network.dyn_peer[204]  lookupTimeSig:vector  ETV
vector 228411  Network.dyn_peer[205]  lookupHopsSig:vector  ETV
vector 228410  Network.dyn_peer[205]  lookupTimeSig:vector  ETV
vector 228413  Network.dyn_peer[206]  lookupHopsSig:vector  ETV
vector 228412  Network.dyn_peer[206]  lookupTimeSig:vector  ETV
vector 228415  Network.dyn_peer[207]  lookupHopsSig:vector  ETV
vector 228414  Network.dyn_peer[207]  lookupTimeSig:vector  ETV
vector 228417  Network.dyn_peer[208]  lookupHopsSig:vector  ETV
vector 228416  Network.dyn_peer[208]  lookupTimeSig:vector  ETV
vector 228421  Network.dyn_peer[210]  lookupHopsSig:vector  ETV
vector 228420  Network.dyn_peer[210]  lookupTimeSig:vector  ETV
vector 228419  Network.dyn_peer[209]  lookupHopsSig:vector  ETV
vector 228418  Network.dyn_peer[209]  lookupTimeSig:vector  ETV
vector 228423  Network.dyn_peer[211]  lookupHopsSig:vector  ETV
vector 228422  Network.dyn_peer[211]  lookupTimeSig:vector  ETV
vector 228425  Network.dyn_peer[212]  lookupHopsSig:vector  ETV
vector 228424  Network.dyn_peer[212]  lookupTimeSig:vector  ETV
vector 228427  Network.dyn_peer[213]  lookupHopsSig:vector  ETV
vector 228426  Network.dyn_peer[213]  lookupTimeSig:vector  ETV
vector 228429  Network.dyn_peer[214]  lookupHopsSig:vector  ETV
vector 228428  Network.dyn_peer[214]  lookupTimeSig:vector  ETV
vector 228431  Network.dyn_peer[215]  lookupHopsSig:vector  ETV
vector 228430  Network.dyn_peer[215]  lookupTimeSig:vector  ETV
vector 228433  Network.dyn_peer[216]  lookupHopsSig:vector  ETV
vector 228432  Network.dyn_peer[216]  lookupTimeSig:vector  ETV
vector 228435  Network.dyn_peer[217]  lookupHopsSig:vector  ETV
vector 228434  Network.dyn_peer[217]  lookupTimeSig:vector  ETV
vector 228437  Network.dyn_peer[218]  lookupHopsSig:vector  ETV
vector 228436  Network.dyn_peer[218]  lookupTimeSig:vector  ETV
vector 228439  Network.dyn_peer[219]  lookupHopsSig:vector  ETV
vector 228438  Network.dyn_peer[219]  lookupTimeSig:vector  ETV
vector 228443  Network.dyn_peer[221]  lookupHopsSig:vector  ETV
vector 228442  Network.dyn_peer[221]  lookupTimeSig:vector  ETV
vector 228441  Network.dyn_peer[220]  lookupHopsSig:vector  ETV
vector 228440  Network.dyn_peer[220]  lookupTimeSig:vector  ETV
vector 228445  Network.dyn_peer[222]  lookupHopsSig:vector  ETV
vector 228444  Network.dyn_peer[222]  lookupTimeSig:vector  ETV
vector 228447  Network.dyn_peer[223]  lookupHopsSig:vector  ETV
vector 228446  Network.dyn_peer[223]  lookupTimeSig:vector  ETV
vector 228449  Network.dyn_peer[224]  lookupHopsSig:vector  ETV
vector 228448  Network.dyn_peer[224]  lookupTimeSig:vector  ETV
vector 228451  Network.dyn_peer[225]  lookupHopsSig:vector  ETV
vector 228450  Network.dyn_peer[225]  lookupTimeSig:vector  ETV
vector 228453  Network.dyn_peer[226]  lookupHopsSig:vector  ETV
vector 228452  Network.dyn_peer[226]  lookupTimeSig:vector  ETV
vector 228455  Network.dyn_peer[227]  lookupHopsSig:vector  ETV
vector 228454  Network.dyn_peer[227]  lookupTimeSig:vector  ETV
vector 228457  Network.dyn_peer[228]  lookupHopsSig:vector  ETV
vector 228456  Network.dyn_peer[228]  lookupTimeSig:vector  ETV
vector 228459  Network.dyn_peer[229]  lookupHopsSig:vector  ETV
vector 228458  Network.dyn_peer[229]  lookupTimeSig:vector  ETV
vector 228461  Network.dyn_peer[230]  lookupHopsSig:vector  ETV
vector 228460  Network.dyn_peer[230]  lookupTimeSig:vector  ETV
vector 228463  Network.dyn_peer[231]  lookupHopsSig:vector  ETV
vector 228462  Network.dyn_peer[231]  lookupTimeSig:vector  ETV
vector 228465  Network.dyn_peer[232]  lookupHopsSig:vector  ETV
vector 228464  Network.dyn_peer[232]  lookupTimeSig:vector  ETV