version 2
run Stability-60-20130521-22:26:29-23591
attr configname Stability
attr datetime 20130521-22:26:29
attr experiment Stability
attr inifile omnetpp.ini
attr iterationvars $0=2
attr iterationvars2 "$0=2, $repetition=0"
attr measurement $0=2
attr network Network
attr processid 23591
attr repetition 0
attr replication #0
attr resultdir results
attr runnumber 60
attr seedset 60

vector 120001  Network.dyn_peer[0]  lookupHopsSig:vector  ETV
vector 120000  Network.dyn_peer[0]  lookupTimeSig:vector  ETV
vector 120003  Network.dyn_peer[1]  lookupHopsSig:vector  ETV
vector 120002  Network.dyn_peer[1]  lookupTimeSig:vector  ETV
vector 120005  Network.dyn_peer[2]  lookupHopsSig:vector  ETV
vector 120004  Network.dyn_peer[2]  lookupTimeSig:vector  ETV
vector 120007  Network.dyn_peer[3]  lookupHopsSig:vector  ETV
vector 120006  Network.dyn_peer[3]  lookupTimeSig:vector  ETV
vector 120009  Network.dyn_peer[4]  lookupHopsSig:vector  ETV
vector 120008  Network.dyn_peer[4]  lookupTimeSig:vector  ETV
vector 120011  Network.dyn_peer[5]  lookupHopsSig:vector  ETV
vector 120010  Network.dyn_peer[5]  lookupTimeSig:vector  ETV
vector 120013  Network.dyn_peer[6]  lookupHopsSig:vector  ETV
vector 120012  Network.dyn_peer[6]  lookupTimeSig:vector  ETV
vector 120015  Network.dyn_peer[7]  lookupHopsSig:vector  ETV
vector 120014  Network.dyn_peer[7]  lookupTimeSig:vector  ETV
vector 120017  Network.dyn_peer[8]  lookupHopsSig:vector  ETV
vector 120016  Network.dyn_peer[8]  lookupTimeSig:vector  ETV
vector 120019  Network.dyn_peer[9]  lookupHopsSig:vector  ETV
vector 120018  Network.dyn_peer[9]  lookupTimeSig:vector  ETV
vector 120021  Network.dyn_peer[10]  lookupHopsSig:vector  ETV
vector 120020  Network.dyn_peer[10]  lookupTimeSig:vector  ETV
vector 120023  Network.dyn_peer[11]  lookupHopsSig:vector  ETV
vector 120022  Network.dyn_peer[11]  lookupTimeSig:vector  ETV
vector 120025  Network.dyn_peer[12]  lookupHopsSig:vector  ETV
vector 120024  Network.dyn_peer[12]  lookupTimeSig:vector  ETV
vector 120027  Network.dyn_peer[13]  lookupHopsSig:vector  ETV
vector 120026  Network.dyn_peer[13]  lookupTimeSig:vector  ETV
vector 120029  Network.dyn_peer[14]  lookupHopsSig:vector  ETV
vector 120028  Network.dyn_peer[14]  lookupTimeSig:vector  ETV
vector 120031  Network.dyn_peer[15]  lookupHopsSig:vector  ETV
vector 120030  Network.dyn_peer[15]  lookupTimeSig:vector  ETV
vector 120033  Network.dyn_peer[16]  lookupHopsSig:vector  ETV
vector 120032  Network.dyn_peer[16]  lookupTimeSig:vector  ETV
vector 120035  Network.dyn_peer[17]  lookupHopsSig:vector  ETV
vector 120034  Network.dyn_peer[17]  lookupTimeSig:vector  ETV
vector 120037  Network.dyn_peer[18]  lookupHopsSig:vector  ETV
vector 120036  Network.dyn_peer[18]  lookupTimeSig:vector  ETV
vector 120039  Network.dyn_peer[19]  lookupHopsSig:vector  ETV
vector 120038  Network.dyn_peer[19]  lookupTimeSig:vector  ETV
vector 120041  Network.dyn_peer[20]  lookupHopsSig:vector  ETV
vector 120040  Network.dyn_peer[20]  lookupTimeSig:vector  ETV
vector 120043  Network.dyn_peer[21]  lookupHopsSig:vector  ETV
vector 120042  Network.dyn_peer[21]  lookupTimeSig:vector  ETV
vector 120045  Network.dyn_peer[22]  lookupHopsSig:vector  ETV
vector 120044  Network.dyn_peer[22]  lookupTimeSig:vector  ETV
vector 120047  Network.dyn_peer[23]  lookupHopsSig:vector  ETV
vector 120046  Network.dyn_peer[23]  lookupTimeSig:vector  ETV
vector 120049  Network.dyn_peer[24]  lookupHopsSig:vector  ETV
vector 120048  Network.dyn_peer[24]  lookupTimeSig:vector  ETV
vector 120051  Network.dyn_peer[25]  lookupHopsSig:vector  ETV
vector 120050  Network.dyn_peer[25]  lookupTimeSig:vector  ETV
vector 120053  Network.dyn_peer[26]  lookupHopsSig:vector  ETV
vector 120052  Network.dyn_peer[26]  lookupTimeSig:vector  ETV
vector 120055  Network.dyn_peer[27]  lookupHopsSig:vector  ETV
vector 120054  Network.dyn_peer[27]  lookupTimeSig:vector  ETV
vector 120057  Network.dyn_peer[28]  lookupHopsSig:vector  ETV
vector 120056  Network.dyn_peer[28]  lookupTimeSig:vector  ETV
vector 120059  Network.dyn_peer[29]  lookupHopsSig:vector  ETV
vector 120058  Network.dyn_peer[29]  lookupTimeSig:vector  ETV
vector 120061  Network.dyn_peer[30]  lookupHopsSig:vector  ETV
vector 120060  Network.dyn_peer[30]  lookupTimeSig:vector  ETV
vector 120063  Network.dyn_peer[31]  lookupHopsSig:vector  ETV
vector 120062  Network.dyn_peer[31]  lookupTimeSig:vector  ETV
vector 120065  Network.dyn_peer[32]  lookupHopsSig:vector  ETV
vector 120064  Network.dyn_peer[32]  lookupTimeSig:vector  ETV
vector 120067  Network.dyn_peer[33]  lookupHopsSig:vector  ETV
vector 120066  Network.dyn_peer[33]  lookupTimeSig:vector  ETV
vector 120069  Network.dyn_peer[34]  lookupHopsSig:vector  ETV
vector 120068  Network.dyn_peer[34]  lookupTimeSig:vector  ETV
vector 120071  Network.dyn_peer[35]  lookupHopsSig:vector  ETV
vector 120070  Network.dyn_peer[35]  lookupTimeSig:vector  ETV
vector 120073  Network.dyn_peer[36]  lookupHopsSig:vector  ETV
vector 120072  Network.dyn_peer[36]  lookupTimeSig:vector  ETV
vector 120075  Network.dyn_peer[37]  lookupHopsSig:vector  ETV
vector 120074  Network.dyn_peer[37]  lookupTimeSig:vector  ETV
vector 120077  Network.dyn_peer[38]  lookupHopsSig:vector  ETV
vector 120076  Network.dyn_peer[38]  lookupTimeSig:vector  ETV
vector 120079  Network.dyn_peer[39]  lookupHopsSig:vector  ETV
vector 120078  Network.dyn_peer[39]  lookupTimeSig:vector  ETV
vector 120081  Network.dyn_peer[40]  lookupHopsSig:vector  ETV
vector 120080  Network.dyn_peer[40]  lookupTimeSig:vector  ETV
vector 120083  Network.dyn_peer[41]  lookupHopsSig:vector  ETV
vector 120082  Network.dyn_peer[41]  lookupTimeSig:vector  ETV
vector 120085  Network.dyn_peer[42]  lookupHopsSig:vector  ETV
vector 120084  Network.dyn_peer[42]  lookupTimeSig:vector  ETV
vector 120087  Network.dyn_peer[43]  lookupHopsSig:vector  ETV
vector 120086  Network.dyn_peer[43]  lookupTimeSig:vector  ETV
vector 120089  Network.dyn_peer[44]  lookupHopsSig:vector  ETV
vector 120088  Network.dyn_peer[44]  lookupTimeSig:vector  ETV
vector 120091  Network.dyn_peer[45]  lookupHopsSig:vector  ETV
vector 120090  Network.dyn_peer[45]  lookupTimeSig:vector  ETV
vector 120093  Network.dyn_peer[46]  lookupHopsSig:vector  ETV
vector 120092  Network.dyn_peer[46]  lookupTimeSig:vector  ETV
vector 120095  Network.dyn_peer[47]  lookupHopsSig:vector  ETV
vector 120094  Network.dyn_peer[47]  lookupTimeSig:vector  ETV
vector 120097  Network.dyn_peer[48]  lookupHopsSig:vector  ETV
vector 120096  Network.dyn_peer[48]  lookupTimeSig:vector  ETV
vector 120099  Network.dyn_peer[49]  lookupHopsSig:vector  ETV
vector 120098  Network.dyn_peer[49]  lookupTimeSig:vector  ETV
vector 120101  Network.dyn_peer[50]  lookupHopsSig:vector  ETV
vector 120100  Network.dyn_peer[50]  lookupTimeSig:vector  ETV
vector 120103  Network.dyn_peer[51]  lookupHopsSig:vector  ETV
vector 120102  Network.dyn_peer[51]  lookupTimeSig:vector  ETV
vector 120105  Network.dyn_peer[52]  lookupHopsSig:vector  ETV
vector 120104  Network.dyn_peer[52]  lookupTimeSig:vector  ETV
vector 120107  Network.dyn_peer[53]  lookupHopsSig:vector  ETV
vector 120106  Network.dyn_peer[53]  lookupTimeSig:vector  ETV
vector 120109  Network.dyn_peer[54]  lookupHopsSig:vector  ETV
vector 120108  Network.dyn_peer[54]  lookupTimeSig:vector  ETV
vector 120111  Network.dyn_peer[55]  lookupHopsSig:vector  ETV
vector 120110  Network.dyn_peer[55]  lookupTimeSig:vector  ETV
vector 120113  Network.dyn_peer[56]  lookupHopsSig:vector  ETV
vector 120112  Network.dyn_peer[56]  lookupTimeSig:vector  ETV
vector 120115  Network.dyn_peer[57]  lookupHopsSig:vector  ETV
vector 120114  Network.dyn_peer[57]  lookupTimeSig:vector  ETV
vector 120117  Network.dyn_peer[58]  lookupHopsSig:vector  ETV
vector 120116  Network.dyn_peer[58]  lookupTimeSig:vector  ETV
vector 120119  Network.dyn_peer[59]  lookupHopsSig:vector  ETV
vector 120118  Network.dyn_peer[59]  lookupTimeSig:vector  ETV
vector 120121  Network.dyn_peer[60]  lookupHopsSig:vector  ETV
vector 120120  Network.dyn_peer[60]  lookupTimeSig:vector  ETV
vector 120123  Network.dyn_peer[61]  lookupHopsSig:vector  ETV
vector 120122  Network.dyn_peer[61]  lookupTimeSig:vector  ETV
vector 120125  Network.dyn_peer[62]  lookupHopsSig:vector  ETV
vector 120124  Network.dyn_peer[62]  lookupTimeSig:vector  ETV
vector 120127  Network.dyn_peer[63]  lookupHopsSig:vector  ETV
vector 120126  Network.dyn_peer[63]  lookupTimeSig:vector  ETV
vector 120129  Network.dyn_peer[64]  lookupHopsSig:vector  ETV
vector 120128  Network.dyn_peer[64]  lookupTimeSig:vector  ETV
vector 120131  Network.dyn_peer[65]  lookupHopsSig:vector  ETV
vector 120130  Network.dyn_peer[65]  lookupTimeSig:vector  ETV
vector 120133  Network.dyn_peer[66]  lookupHopsSig:vector  ETV
vector 120132  Network.dyn_peer[66]  lookupTimeSig:vector  ETV
vector 120135  Network.dyn_peer[67]  lookupHopsSig:vector  ETV
vector 120134  Network.dyn_peer[67]  lookupTimeSig:vector  ETV
vector 120137  Network.dyn_peer[68]  lookupHopsSig:vector  ETV
vector 120136  Network.dyn_peer[68]  lookupTimeSig:vector  ETV
vector 120139  Network.dyn_peer[69]  lookupHopsSig:vector  ETV
vector 120138  Network.dyn_peer[69]  lookupTimeSig:vector  ETV
vector 120141  Network.dyn_peer[70]  lookupHopsSig:vector  ETV
vector 120140  Network.dyn_peer[70]  lookupTimeSig:vector  ETV
vector 120143  Network.dyn_peer[71]  lookupHopsSig:vector  ETV
vector 120142  Network.dyn_peer[71]  lookupTimeSig:vector  ETV
vector 120145  Network.dyn_peer[72]  lookupHopsSig:vector  ETV
vector 120144  Network.dyn_peer[72]  lookupTimeSig:vector  ETV
vector 120147  Network.dyn_peer[73]  lookupHopsSig:vector  ETV
vector 120146  Network.dyn_peer[73]  lookupTimeSig:vector  ETV
vector 120149  Network.dyn_peer[74]  lookupHopsSig:vector  ETV
vector 120148  Network.dyn_peer[74]  lookupTimeSig:vector  ETV
vector 120151  Network.dyn_peer[75]  lookupHopsSig:vector  ETV
vector 120150  Network.dyn_peer[75]  lookupTimeSig:vector  ETV
vector 120153  Network.dyn_peer[76]  lookupHopsSig:vector  ETV
vector 120152  Network.dyn_peer[76]  lookupTimeSig:vector  ETV
vector 120155  Network.dyn_peer[77]  lookupHopsSig:vector  ETV
vector 120154  Network.dyn_peer[77]  lookupTimeSig:vector  ETV
vector 120157  Network.dyn_peer[78]  lookupHopsSig:vector  ETV
vector 120156  Network.dyn_peer[78]  lookupTimeSig:vector  ETV
vector 120159  Network.dyn_peer[79]  lookupHopsSig:vector  ETV
vector 120158  Network.dyn_peer[79]  lookupTimeSig:vector  ETV
vector 120161  Network.dyn_peer[80]  lookupHopsSig:vector  ETV
vector 120160  Network.dyn_peer[80]  lookupTimeSig:vector  ETV
vector 120163  Network.dyn_peer[81]  lookupHopsSig:vector  ETV
vector 120162  Network.dyn_peer[81]  lookupTimeSig:vector  ETV
vector 120165  Network.dyn_peer[82]  lookupHopsSig:vector  ETV
vector 120164  Network.dyn_peer[82]  lookupTimeSig:vector  ETV
vector 120167  Network.dyn_peer[83]  lookupHopsSig:vector  ETV
vector 120166  Network.dyn_peer[83]  lookupTimeSig:vector  ETV
vector 120169  Network.dyn_peer[84]  lookupHopsSig:vector  ETV
vector 120168  Network.dyn_peer[84]  lookupTimeSig:vector  ETV
vector 120171  Network.dyn_peer[85]  lookupHopsSig:vector  ETV
vector 120170  Network.dyn_peer[85]  lookupTimeSig:vector  ETV
vector 120173  Network.dyn_peer[86]  lookupHopsSig:vector  ETV
vector 120172  Network.dyn_peer[86]  lookupTimeSig:vector  ETV
vector 120175  Network.dyn_peer[87]  lookupHopsSig:vector  ETV
vector 120174  Network.dyn_peer[87]  lookupTimeSig:vector  ETV
vector 120177  Network.dyn_peer[88]  lookupHopsSig:vector  ETV
vector 120176  Network.dyn_peer[88]  lookupTimeSig:vector  ETV
vector 120179  Network.dyn_peer[89]  lookupHopsSig:vector  ETV
vector 120178  Network.dyn_peer[89]  lookupTimeSig:vector  ETV
vector 120181  Network.dyn_peer[90]  lookupHopsSig:vector  ETV
vector 120180  Network.dyn_peer[90]  lookupTimeSig:vector  ETV
vector 120183  Network.dyn_peer[91]  lookupHopsSig:vector  ETV
vector 120182  Network.dyn_peer[91]  lookupTimeSig:vector  ETV
vector 120185  Network.dyn_peer[92]  lookupHopsSig:vector  ETV
vector 120184  Network.dyn_peer[92]  lookupTimeSig:vector  ETV
vector 120187  Network.dyn_peer[93]  lookupHopsSig:vector  ETV
vector 120186  Network.dyn_peer[93]  lookupTimeSig:vector  ETV
vector 120189  Network.dyn_peer[94]  lookupHopsSig:vector  ETV
vector 120188  Network.dyn_peer[94]  lookupTimeSig:vector  ETV
vector 120191  Network.dyn_peer[95]  lookupHopsSig:vector  ETV
vector 120190  Network.dyn_peer[95]  lookupTimeSig:vector  ETV
vector 120193  Network.dyn_peer[96]  lookupHopsSig:vector  ETV
vector 120192  Network.dyn_peer[96]  lookupTimeSig:vector  ETV
vector 120195  Network.dyn_peer[97]  lookupHopsSig:vector  ETV
vector 120194  Network.dyn_peer[97]  lookupTimeSig:vector  ETV
vector 120197  Network.dyn_peer[98]  lookupHopsSig:vector  ETV
vector 120196  Network.dyn_peer[98]  lookupTimeSig:vector  ETV
vector 120199  Network.dyn_peer[99]  lookupHopsSig:vector  ETV
vector 120198  Network.dyn_peer[99]  lookupTimeSig:vector  ETV
vector 120201  Network.dyn_peer[100]  lookupHopsSig:vector  ETV
vector 120200  Network.dyn_peer[100]  lookupTimeSig:vector  ETV
vector 120203  Network.dyn_peer[101]  lookupHopsSig:vector  ETV
vector 120202  Network.dyn_peer[101]  lookupTimeSig:vector  ETV
vector 120205  Network.dyn_peer[102]  lookupHopsSig:vector  ETV
vector 120204  Network.dyn_peer[102]  lookupTimeSig:vector  ETV
vector 120207  Network.dyn_peer[103]  lookupHopsSig:vector  ETV
vector 120206  Network.dyn_peer[103]  lookupTimeSig:vector  ETV
vector 120209  Network.dyn_peer[104]  lookupHopsSig:vector  ETV
vector 120208  Network.dyn_peer[104]  lookupTimeSig:vector  ETV
vector 120211  Network.dyn_peer[105]  lookupHopsSig:vector  ETV
vector 120210  Network.dyn_peer[105]  lookupTimeSig:vector  ETV
vector 120213  Network.dyn_peer[106]  lookupHopsSig:vector  ETV
vector 120212  Network.dyn_peer[106]  lookupTimeSig:vector  ETV
vector 120215  Network.dyn_peer[107]  lookupHopsSig:vector  ETV
vector 120214  Network.dyn_peer[107]  lookupTimeSig:vector  ETV
vector 120217  Network.dyn_peer[108]  lookupHopsSig:vector  ETV
vector 120216  Network.dyn_peer[108]  lookupTimeSig:vector  ETV
vector 120219  Network.dyn_peer[109]  lookupHopsSig:vector  ETV
vector 120218  Network.dyn_peer[109]  lookupTimeSig:vector  ETV
vector 120221  Network.dyn_peer[110]  lookupHopsSig:vector  ETV
vector 120220  Network.dyn_peer[110]  lookupTimeSig:vector  ETV
vector 120223  Network.dyn_peer[111]  lookupHopsSig:vector  ETV
vector 120222  Network.dyn_peer[111]  lookupTimeSig:vector  ETV
vector 120225  Network.dyn_peer[112]  lookupHopsSig:vector  ETV
vector 120224  Network.dyn_peer[112]  lookupTimeSig:vector  ETV
vector 120227  Network.dyn_peer[113]  lookupHopsSig:vector  ETV
vector 120226  Network.dyn_peer[113]  lookupTimeSig:vector  ETV
vector 120229  Network.dyn_peer[114]  lookupHopsSig:vector  ETV
vector 120228  Network.dyn_peer[114]  lookupTimeSig:vector  ETV
vector 120231  Network.dyn_peer[115]  lookupHopsSig:vector  ETV
vector 120230  Network.dyn_peer[115]  lookupTimeSig:vector  ETV
vector 120233  Network.dyn_peer[116]  lookupHopsSig:vector  ETV
vector 120232  Network.dyn_peer[116]  lookupTimeSig:vector  ETV
vector 120235  Network.dyn_peer[117]  lookupHopsSig:vector  ETV
vector 120234  Network.dyn_peer[117]  lookupTimeSig:vector  ETV
vector 120237  Network.dyn_peer[118]  lookupHopsSig:vector  ETV
vector 120236  Network.dyn_peer[118]  lookupTimeSig:vector  ETV
vector 120239  Network.dyn_peer[119]  lookupHopsSig:vector  ETV
vector 120238  Network.dyn_peer[119]  lookupTimeSig:vector  ETV
vector 120241  Network.dyn_peer[120]  lookupHopsSig:vector  ETV
vector 120240  Network.dyn_peer[120]  lookupTimeSig:vector  ETV
vector 120243  Network.dyn_peer[121]  lookupHopsSig:vector  ETV
vector 120242  Network.dyn_peer[121]  lookupTimeSig:vector  ETV
vector 120245  Network.dyn_peer[122]  lookupHopsSig:vector  ETV
vector 120244  Network.dyn_peer[122]  lookupTimeSig:vector  ETV
vector 120247  Network.dyn_peer[123]  lookupHopsSig:vector  ETV
vector 120246  Network.dyn_peer[123]  lookupTimeSig:vector  ETV
vector 120249  Network.dyn_peer[124]  lookupHopsSig:vector  ETV
vector 120248  Network.dyn_peer[124]  lookupTimeSig:vector  ETV
vector 120251  Network.dyn_peer[125]  lookupHopsSig:vector  ETV
vector 120250  Network.dyn_peer[125]  lookupTimeSig:vector  ETV
vector 120253  Network.dyn_peer[126]  lookupHopsSig:vector  ETV
vector 120252  Network.dyn_peer[126]  lookupTimeSig:vector  ETV
vector 120255  Network.dyn_peer[127]  lookupHopsSig:vector  ETV
vector 120254  Network.dyn_peer[127]  lookupTimeSig:vector  ETV
vector 120257  Network.dyn_peer[128]  lookupHopsSig:vector  ETV
vector 120256  Network.dyn_peer[128]  lookupTimeSig:vector  ETV
vector 120259  Network.dyn_peer[129]  lookupHopsSig:vector  ETV
vector 120258  Network.dyn_peer[129]  lookupTimeSig:vector  ETV
vector 120261  Network.dyn_peer[130]  lookupHopsSig:vector  ETV
vector 120260  Network.dyn_peer[130]  lookupTimeSig:vector  ETV
vector 120263  Network.dyn_peer[131]  lookupHopsSig:vector  ETV
vector 120262  Network.dyn_peer[131]  lookupTimeSig:vector  ETV
vector 120265  Network.dyn_peer[132]  lookupHopsSig:vector  ETV
vector 120264  Network.dyn_peer[132]  lookupTimeSig:vector  ETV
vector 120267  Network.dyn_peer[133]  lookupHopsSig:vector  ETV
vector 120266  Network.dyn_peer[133]  lookupTimeSig:vector  ETV
vector 120269  Network.dyn_peer[134]  lookupHopsSig:vector  ETV
vector 120268  Network.dyn_peer[134]  lookupTimeSig:vector  ETV
vector 120271  Network.dyn_peer[135]  lookupHopsSig:vector  ETV
vector 120270  Network.dyn_peer[135]  lookupTimeSig:vector  ETV
vector 120273  Network.dyn_peer[136]  lookupHopsSig:vector  ETV
vector 120272  Network.dyn_peer[136]  lookupTimeSig:vector  ETV
vector 120275  Network.dyn_peer[137]  lookupHopsSig:vector  ETV
vector 120274  Network.dyn_peer[137]  lookupTimeSig:vector  ETV
vector 120277  Network.dyn_peer[138]  lookupHopsSig:vector  ETV
vector 120276  Network.dyn_peer[138]  lookupTimeSig:vector  ETV
vector 120279  Network.dyn_peer[139]  lookupHopsSig:vector  ETV
vector 120278  Network.dyn_peer[139]  lookupTimeSig:vector  ETV
vector 120281  Network.dyn_peer[140]  lookupHopsSig:vector  ETV
vector 120280  Network.dyn_peer[140]  lookupTimeSig:vector  ETV
vector 120283  Network.dyn_peer[141]  lookupHopsSig:vector  ETV
vector 120282  Network.dyn_peer[141]  lookupTimeSig:vector  ETV
vector 120285  Network.dyn_peer[142]  lookupHopsSig:vector  ETV
vector 120284  Network.dyn_peer[142]  lookupTimeSig:vector  ETV
vector 120287  Network.dyn_peer[143]  lookupHopsSig:vector  ETV
vector 120286  Network.dyn_peer[143]  lookupTimeSig:vector  ETV
vector 120289  Network.dyn_peer[144]  lookupHopsSig:vector  ETV
vector 120288  Network.dyn_peer[144]  lookupTimeSig:vector  ETV
vector 120291  Network.dyn_peer[145]  lookupHopsSig:vector  ETV
vector 120290  Network.dyn_peer[145]  lookupTimeSig:vector  ETV
vector 120293  Network.dyn_peer[146]  lookupHopsSig:vector  ETV
vector 120292  Network.dyn_peer[146]  lookupTimeSig:vector  ETV
vector 120295  Network.dyn_peer[147]  lookupHopsSig:vector  ETV
vector 120294  Network.dyn_peer[147]  lookupTimeSig:vector  ETV
vector 120297  Network.dyn_peer[148]  lookupHopsSig:vector  ETV
vector 120296  Network.dyn_peer[148]  lookupTimeSig:vector  ETV
vector 120299  Network.dyn_peer[149]  lookupHopsSig:vector  ETV
vector 120298  Network.dyn_peer[149]  lookupTimeSig:vector  ETV
vector 120301  Network.dyn_peer[150]  lookupHopsSig:vector  ETV
vector 120300  Network.dyn_peer[150]  lookupTimeSig:vector  ETV
vector 120303  Network.dyn_peer[151]  lookupHopsSig:vector  ETV
vector 120302  Network.dyn_peer[151]  lookupTimeSig:vector  ETV
vector 120305  Network.dyn_peer[152]  lookupHopsSig:vector  ETV
vector 120304  Network.dyn_peer[152]  lookupTimeSig:vector  ETV
vector 120307  Network.dyn_peer[153]  lookupHopsSig:vector  ETV
vector 120306  Network.dyn_peer[153]  lookupTimeSig:vector  ETV
vector 120309  Network.dyn_peer[154]  lookupHopsSig:vector  ETV
vector 120308  Network.dyn_peer[154]  lookupTimeSig:vector  ETV
vector 120311  Network.dyn_peer[155]  lookupHopsSig:vector  ETV
vector 120310  Network.dyn_peer[155]  lookupTimeSig:vector  ETV
vector 120313  Network.dyn_peer[156]  lookupHopsSig:vector  ETV
vector 120312  Network.dyn_peer[156]  lookupTimeSig:vector  ETV
vector 120315  Network.dyn_peer[157]  lookupHopsSig:vector  ETV
vector 120314  Network.dyn_peer[157]  lookupTimeSig:vector  ETV
vector 120317  Network.dyn_peer[158]  lookupHopsSig:vector  ETV
vector 120316  Network.dyn_peer[158]  lookupTimeSig:vector  ETV
vector 120319  Network.dyn_peer[159]  lookupHopsSig:vector  ETV
vector 120318  Network.dyn_peer[159]  lookupTimeSig:vector  ETV
vector 120321  Network.dyn_peer[160]  lookupHopsSig:vector  ETV
vector 120320  Network.dyn_peer[160]  lookupTimeSig:vector  ETV
vector 120323  Network.dyn_peer[161]  lookupHopsSig:vector  ETV
vector 120322  Network.dyn_peer[161]  lookupTimeSig:vector  ETV
vector 120325  Network.dyn_peer[162]  lookupHopsSig:vector  ETV
vector 120324  Network.dyn_peer[162]  lookupTimeSig:vector  ETV
vector 120327  Network.dyn_peer[163]  lookupHopsSig:vector  ETV
vector 120326  Network.dyn_peer[163]  lookupTimeSig:vector  ETV
vector 120329  Network.dyn_peer[164]  lookupHopsSig:vector  ETV
vector 120328  Network.dyn_peer[164]  lookupTimeSig:vector  ETV
vector 120331  Network.dyn_peer[165]  lookupHopsSig:vector  ETV
vector 120330  Network.dyn_peer[165]  lookupTimeSig:vector  ETV
vector 120333  Network.dyn_peer[166]  lookupHopsSig:vector  ETV
vector 120332  Network.dyn_peer[166]  lookupTimeSig:vector  ETV
vector 120335  Network.dyn_peer[167]  lookupHopsSig:vector  ETV
vector 120334  Network.dyn_peer[167]  lookupTimeSig:vector  ETV
vector 120337  Network.dyn_peer[168]  lookupHopsSig:vector  ETV
vector 120336  Network.dyn_peer[168]  lookupTimeSig:vector  ETV
vector 120339  Network.dyn_peer[169]  lookupHopsSig:vector  ETV
vector 120338  Network.dyn_peer[169]  lookupTimeSig:vector  ETV
vector 120341  Network.dyn_peer[170]  lookupHopsSig:vector  ETV
vector 120340  Network.dyn_peer[170]  lookupTimeSig:vector  ETV
vector 120343  Network.dyn_peer[171]  lookupHopsSig:vector  ETV
vector 120342  Network.dyn_peer[171]  lookupTimeSig:vector  ETV
vector 120345  Network.dyn_peer[172]  lookupHopsSig:vector  ETV
vector 120344  Network.dyn_peer[172]  lookupTimeSig:vector  ETV
vector 120347  Network.dyn_peer[173]  lookupHopsSig:vector  ETV
vector 120346  Network.dyn_peer[173]  lookupTimeSig:vector  ETV
vector 120349  Network.dyn_peer[174]  lookupHopsSig:vector  ETV
vector 120348  Network.dyn_peer[174]  lookupTimeSig:vector  ETV
vector 120351  Network.dyn_peer[175]  lookupHopsSig:vector  ETV
vector 120350  Network.dyn_peer[175]  lookupTimeSig:vector  ETV
vector 120353  Network.dyn_peer[176]  lookupHopsSig:vector  ETV
vector 120352  Network.dyn_peer[176]  lookupTimeSig:vector  ETV
vector 120355  Network.dyn_peer[177]  lookupHopsSig:vector  ETV
vector 120354  Network.dyn_peer[177]  lookupTimeSig:vector  ETV
vector 120357  Network.dyn_peer[178]  lookupHopsSig:vector  ETV
vector 120356  Network.dyn_peer[178]  lookupTimeSig:vector  ETV
vector 120359  Network.dyn_peer[179]  lookupHopsSig:vector  ETV
vector 120358  Network.dyn_peer[179]  lookupTimeSig:vector  ETV
vector 120361  Network.dyn_peer[180]  lookupHopsSig:vector  ETV
vector 120360  Network.dyn_peer[180]  lookupTimeSig:vector  ETV
vector 120363  Network.dyn_peer[181]  lookupHopsSig:vector  ETV
vector 120362  Network.dyn_peer[181]  lookupTimeSig:vector  ETV
vector 120365  Network.dyn_peer[182]  lookupHopsSig:vector  ETV
vector 120364  Network.dyn_peer[182]  lookupTimeSig:vector  ETV
vector 120367  Network.dyn_peer[183]  lookupHopsSig:vector  ETV
vector 120366  Network.dyn_peer[183]  lookupTimeSig:vector  ETV
vector 120369  Network.dyn_peer[184]  lookupHopsSig:vector  ETV
vector 120368  Network.dyn_peer[184]  lookupTimeSig:vector  ETV
vector 120371  Network.dyn_peer[185]  lookupHopsSig:vector  ETV
vector 120370  Network.dyn_peer[185]  lookupTimeSig:vector  ETV
vector 120373  Network.dyn_peer[186]  lookupHopsSig:vector  ETV
vector 120372  Network.dyn_peer[186]  lookupTimeSig:vector  ETV
vector 120375  Network.dyn_peer[187]  lookupHopsSig:vector  ETV
vector 120374  Network.dyn_peer[187]  lookupTimeSig:vector  ETV
vector 120377  Network.dyn_peer[188]  lookupHopsSig:vector  ETV
vector 120376  Network.dyn_peer[188]  lookupTimeSig:vector  ETV
vector 120379  Network.dyn_peer[189]  lookupHopsSig:vector  ETV
vector 120378  Network.dyn_peer[189]  lookupTimeSig:vector  ETV
vector 120381  Network.dyn_peer[190]  lookupHopsSig:vector  ETV
vector 120380  Network.dyn_peer[190]  lookupTimeSig:vector  ETV
vector 120383  Network.dyn_peer[191]  lookupHopsSig:vector  ETV
vector 120382  Network.dyn_peer[191]  lookupTimeSig:vector  ETV
vector 120385  Network.dyn_peer[192]  lookupHopsSig:vector  ETV
vector 120384  Network.dyn_peer[192]  lookupTimeSig:vector  ETV
vector 120387  Network.dyn_peer[193]  lookupHopsSig:vector  ETV
vector 120386  Network.dyn_peer[193]  lookupTimeSig:vector  ETV
vector 120389  Network.dyn_peer[194]  lookupHopsSig:vector  ETV
vector 120388  Network.dyn_peer[194]  lookupTimeSig:vector  ETV
vector 120391  Network.dyn_peer[195]  lookupHopsSig:vector  ETV
vector 120390  Network.dyn_peer[195]  lookupTimeSig:vector  ETV
vector 120393  Network.dyn_peer[196]  lookupHopsSig:vector  ETV
vector 120392  Network.dyn_peer[196]  lookupTimeSig:vector  ETV
vector 120395  Network.dyn_peer[197]  lookupHopsSig:vector  ETV
vector 120394  Network.dyn_peer[197]  lookupTimeSig:vector  ETV
vector 120397  Network.dyn_peer[198]  lookupHopsSig:vector  ETV
vector 120396  Network.dyn_peer[198]  lookupTimeSig:vector  ETV
vector 120399  Network.dyn_peer[199]  lookupHopsSig:vector  ETV
vector 120398  Network.dyn_peer[199]  lookupTimeSig:vector  ETV
vector 120401  Network.dyn_peer[200]  lookupHopsSig:vector  ETV
vector 120400  Network.dyn_peer[200]  lookupTimeSig:vector  ETV
vector 120403  Network.dyn_peer[201]  lookupHopsSig:vector  ETV
vector 120402  Network.dyn_peer[201]  lookupTimeSig:vector  ETV
vector 120405  Network.dyn_peer[202]  lookupHopsSig:vector  ETV
vector 120404  Network.dyn_peer[202]  lookupTimeSig:vector  ETV
vector 120407  Network.dyn_peer[203]  lookupHopsSig:vector  ETV
vector 120406  Network.dyn_peer[203]  lookupTimeSig:vector  ETV
vector 120409  Network.dyn_peer[204]  lookupHopsSig:vector  ETV
vector 120408  Network.dyn_peer[204]  lookupTimeSig:vector  ETV
vector 120411  Network.dyn_peer[205]  lookupHopsSig:vector  ETV
vector 120410  Network.dyn_peer[205]  lookupTimeSig:vector  ETV
vector 120413  Network.dyn_peer[206]  lookupHopsSig:vector  ETV
vector 120412  Network.dyn_peer[206]  lookupTimeSig:vector  ETV
vector 120415  Network.dyn_peer[207]  lookupHopsSig:vector  ETV
vector 120414  Network.dyn_peer[207]  lookupTimeSig:vector  ETV
vector 120417  Network.dyn_peer[208]  lookupHopsSig:vector  ETV
vector 120416  Network.dyn_peer[208]  lookupTimeSig:vector  ETV
vector 120419  Network.dyn_peer[209]  lookupHopsSig:vector  ETV
vector 120418  Network.dyn_peer[209]  lookupTimeSig:vector  ETV
vector 120421  Network.dyn_peer[210]  lookupHopsSig:vector  ETV
vector 120420  Network.dyn_peer[210]  lookupTimeSig:vector  ETV
vector 120423  Network.dyn_peer[211]  lookupHopsSig:vector  ETV
vector 120422  Network.dyn_peer[211]  lookupTimeSig:vector  ETV
vector 120425  Network.dyn_peer[212]  lookupHopsSig:vector  ETV
vector 120424  Network.dyn_peer[212]  lookupTimeSig:vector  ETV
vector 120427  Network.dyn_peer[213]  lookupHopsSig:vector  ETV
vector 120426  Network.dyn_peer[213]  lookupTimeSig:vector  ETV
vector 120429  Network.dyn_peer[214]  lookupHopsSig:vector  ETV
vector 120428  Network.dyn_peer[214]  lookupTimeSig:vector  ETV
vector 120431  Network.dyn_peer[215]  lookupHopsSig:vector  ETV
vector 120430  Network.dyn_peer[215]  lookupTimeSig:vector  ETV
vector 120433  Network.dyn_peer[216]  lookupHopsSig:vector  ETV
vector 120432  Network.dyn_peer[216]  lookupTimeSig:vector  ETV
vector 120435  Network.dyn_peer[217]  lookupHopsSig:vector  ETV
vector 120434  Network.dyn_peer[217]  lookupTimeSig:vector  ETV
vector 120437  Network.dyn_peer[218]  lookupHopsSig:vector  ETV
vector 120436  Network.dyn_peer[218]  lookupTimeSig:vector  ETV
vector 120439  Network.dyn_peer[219]  lookupHopsSig:vector  ETV
vector 120438  Network.dyn_peer[219]  lookupTimeSig:vector  ETV
vector 120441  Network.dyn_peer[220]  lookupHopsSig:vector  ETV
vector 120440  Network.dyn_peer[220]  lookupTimeSig:vector  ETV
vector 120443  Network.dyn_peer[221]  lookupHopsSig:vector  ETV
vector 120442  Network.dyn_peer[221]  lookupTimeSig:vector  ETV
vector 120445  Network.dyn_peer[222]  lookupHopsSig:vector  ETV
vector 120444  Network.dyn_peer[222]  lookupTimeSig:vector  ETV
vector 120447  Network.dyn_peer[223]  lookupHopsSig:vector  ETV
vector 120446  Network.dyn_peer[223]  lookupTimeSig:vector  ETV
vector 120449  Network.dyn_peer[224]  lookupHopsSig:vector  ETV
vector 120448  Network.dyn_peer[224]  lookupTimeSig:vector  ETV
vector 120451  Network.dyn_peer[225]  lookupHopsSig:vector  ETV
vector 120450  Network.dyn_peer[225]  lookupTimeSig:vector  ETV
vector 120453  Network.dyn_peer[226]  lookupHopsSig:vector  ETV
vector 120452  Network.dyn_peer[226]  lookupTimeSig:vector  ETV
vector 120455  Network.dyn_peer[227]  lookupHopsSig:vector  ETV
vector 120454  Network.dyn_peer[227]  lookupTimeSig:vector  ETV
vector 120457  Network.dyn_peer[228]  lookupHopsSig:vector  ETV
vector 120456  Network.dyn_peer[228]  lookupTimeSig:vector  ETV
vector 120459  Network.dyn_peer[229]  lookupHopsSig:vector  ETV
vector 120458  Network.dyn_peer[229]  lookupTimeSig:vector  ETV
vector 120461  Network.dyn_peer[230]  lookupHopsSig:vector  ETV
vector 120460  Network.dyn_peer[230]  lookupTimeSig:vector  ETV
vector 120463  Network.dyn_peer[231]  lookupHopsSig:vector  ETV
vector 120462  Network.dyn_peer[231]  lookupTimeSig:vector  ETV
vector 120465  Network.dyn_peer[232]  lookupHopsSig:vector  ETV
vector 120464  Network.dyn_peer[232]  lookupTimeSig:vector  ETV