version 2
run Stability-181-20130521-22:39:23-23591
attr configname Stability
attr datetime 20130521-22:39:23
attr experiment Stability
attr inifile omnetpp.ini
attr iterationvars $0=0.125
attr iterationvars2 "$0=0.125, $repetition=1"
attr measurement $0=0.125
attr network Network
attr processid 23591
attr repetition 1
attr replication #1
attr resultdir results
attr runnumber 181
attr seedset 181

vector 362001  Network.dyn_peer[0]  lookupHopsSig:vector  ETV
vector 362000  Network.dyn_peer[0]  lookupTimeSig:vector  ETV
vector 362003  Network.dyn_peer[1]  lookupHopsSig:vector  ETV
vector 362002  Network.dyn_peer[1]  lookupTimeSig:vector  ETV
vector 362007  Network.dyn_peer[3]  lookupHopsSig:vector  ETV
vector 362006  Network.dyn_peer[3]  lookupTimeSig:vector  ETV
vector 362011  Network.dyn_peer[5]  lookupHopsSig:vector  ETV
vector 362010  Network.dyn_peer[5]  lookupTimeSig:vector  ETV
vector 362005  Network.dyn_peer[2]  lookupHopsSig:vector  ETV
vector 362004  Network.dyn_peer[2]  lookupTimeSig:vector  ETV
vector 362009  Network.dyn_peer[4]  lookupHopsSig:vector  ETV
vector 362008  Network.dyn_peer[4]  lookupTimeSig:vector  ETV
vector 362013  Network.dyn_peer[6]  lookupHopsSig:vector  ETV
vector 362012  Network.dyn_peer[6]  lookupTimeSig:vector  ETV
vector 362017  Network.dyn_peer[8]  lookupHopsSig:vector  ETV
vector 362016  Network.dyn_peer[8]  lookupTimeSig:vector  ETV
vector 362015  Network.dyn_peer[7]  lookupHopsSig:vector  ETV
vector 362014  Network.dyn_peer[7]  lookupTimeSig:vector  ETV
vector 362019  Network.dyn_peer[9]  lookupHopsSig:vector  ETV
vector 362018  Network.dyn_peer[9]  lookupTimeSig:vector  ETV
vector 362021  Network.dyn_peer[10]  lookupHopsSig:vector  ETV
vector 362020  Network.dyn_peer[10]  lookupTimeSig:vector  ETV
vector 362025  Network.dyn_peer[12]  lookupHopsSig:vector  ETV
vector 362024  Network.dyn_peer[12]  lookupTimeSig:vector  ETV
vector 362023  Network.dyn_peer[11]  lookupHopsSig:vector  ETV
vector 362022  Network.dyn_peer[11]  lookupTimeSig:vector  ETV
vector 362029  Network.dyn_peer[14]  lookupHopsSig:vector  ETV
vector 362028  Network.dyn_peer[14]  lookupTimeSig:vector  ETV
vector 362031  Network.dyn_peer[15]  lookupHopsSig:vector  ETV
vector 362030  Network.dyn_peer[15]  lookupTimeSig:vector  ETV
vector 362037  Network.dyn_peer[18]  lookupHopsSig:vector  ETV
vector 362036  Network.dyn_peer[18]  lookupTimeSig:vector  ETV
vector 362035  Network.dyn_peer[17]  lookupHopsSig:vector  ETV
vector 362034  Network.dyn_peer[17]  lookupTimeSig:vector  ETV
vector 362027  Network.dyn_peer[13]  lookupHopsSig:vector  ETV
vector 362026  Network.dyn_peer[13]  lookupTimeSig:vector  ETV
vector 362039  Network.dyn_peer[19]  lookupHopsSig:vector  ETV
vector 362038  Network.dyn_peer[19]  lookupTimeSig:vector  ETV
vector 362033  Network.dyn_peer[16]  lookupHopsSig:vector  ETV
vector 362032  Network.dyn_peer[16]  lookupTimeSig:vector  ETV
vector 362043  Network.dyn_peer[21]  lookupHopsSig:vector  ETV
vector 362042  Network.dyn_peer[21]  lookupTimeSig:vector  ETV
vector 362045  Network.dyn_peer[22]  lookupHopsSig:vector  ETV
vector 362044  Network.dyn_peer[22]  lookupTimeSig:vector  ETV
vector 362047  Network.dyn_peer[23]  lookupHopsSig:vector  ETV
vector 362046  Network.dyn_peer[23]  lookupTimeSig:vector  ETV
vector 362041  Network.dyn_peer[20]  lookupHopsSig:vector  ETV
vector 362040  Network.dyn_peer[20]  lookupTimeSig:vector  ETV
vector 362049  Network.dyn_peer[24]  lookupHopsSig:vector  ETV
vector 362048  Network.dyn_peer[24]  lookupTimeSig:vector  ETV
vector 362053  Network.dyn_peer[26]  lookupHopsSig:vector  ETV
vector 362052  Network.dyn_peer[26]  lookupTimeSig:vector  ETV
vector 362051  Network.dyn_peer[25]  lookupHopsSig:vector  ETV
vector 362050  Network.dyn_peer[25]  lookupTimeSig:vector  ETV
vector 362055  Network.dyn_peer[27]  lookupHopsSig:vector  ETV
vector 362054  Network.dyn_peer[27]  lookupTimeSig:vector  ETV
vector 362057  Network.dyn_peer[28]  lookupHopsSig:vector  ETV
vector 362056  Network.dyn_peer[28]  lookupTimeSig:vector  ETV
vector 362059  Network.dyn_peer[29]  lookupHopsSig:vector  ETV
vector 362058  Network.dyn_peer[29]  lookupTimeSig:vector  ETV
vector 362063  Network.dyn_peer[31]  lookupHopsSig:vector  ETV
vector 362062  Network.dyn_peer[31]  lookupTimeSig:vector  ETV
vector 362065  Network.dyn_peer[32]  lookupHopsSig:vector  ETV
vector 362064  Network.dyn_peer[32]  lookupTimeSig:vector  ETV
vector 362061  Network.dyn_peer[30]  lookupHopsSig:vector  ETV
vector 362060  Network.dyn_peer[30]  lookupTimeSig:vector  ETV
vector 362067  Network.dyn_peer[33]  lookupHopsSig:vector  ETV
vector 362066  Network.dyn_peer[33]  lookupTimeSig:vector  ETV
vector 362069  Network.dyn_peer[34]  lookupHopsSig:vector  ETV
vector 362068  Network.dyn_peer[34]  lookupTimeSig:vector  ETV
vector 362073  Network.dyn_peer[36]  lookupHopsSig:vector  ETV
vector 362072  Network.dyn_peer[36]  lookupTimeSig:vector  ETV
vector 362071  Network.dyn_peer[35]  lookupHopsSig:vector  ETV
vector 362070  Network.dyn_peer[35]  lookupTimeSig:vector  ETV
vector 362075  Network.dyn_peer[37]  lookupHopsSig:vector  ETV
vector 362074  Network.dyn_peer[37]  lookupTimeSig:vector  ETV
vector 362077  Network.dyn_peer[38]  lookupHopsSig:vector  ETV
vector 362076  Network.dyn_peer[38]  lookupTimeSig:vector  ETV
vector 362085  Network.dyn_peer[42]  lookupHopsSig:vector  ETV
vector 362084  Network.dyn_peer[42]  lookupTimeSig:vector  ETV
vector 362079  Network.dyn_peer[39]  lookupHopsSig:vector  ETV
vector 362078  Network.dyn_peer[39]  lookupTimeSig:vector  ETV
vector 362083  Network.dyn_peer[41]  lookupHopsSig:vector  ETV
vector 362082  Network.dyn_peer[41]  lookupTimeSig:vector  ETV
vector 362087  Network.dyn_peer[43]  lookupHopsSig:vector  ETV
vector 362086  Network.dyn_peer[43]  lookupTimeSig:vector  ETV
vector 362081  Network.dyn_peer[40]  lookupHopsSig:vector  ETV
vector 362080  Network.dyn_peer[40]  lookupTimeSig:vector  ETV
vector 362095  Network.dyn_peer[47]  lookupHopsSig:vector  ETV
vector 362094  Network.dyn_peer[47]  lookupTimeSig:vector  ETV
vector 362093  Network.dyn_peer[46]  lookupHopsSig:vector  ETV
vector 362092  Network.dyn_peer[46]  lookupTimeSig:vector  ETV
vector 362101  Network.dyn_peer[50]  lookupHopsSig:vector  ETV
vector 362100  Network.dyn_peer[50]  lookupTimeSig:vector  ETV
vector 362089  Network.dyn_peer[44]  lookupHopsSig:vector  ETV
vector 362088  Network.dyn_peer[44]  lookupTimeSig:vector  ETV
vector 362091  Network.dyn_peer[45]  lookupHopsSig:vector  ETV
vector 362090  Network.dyn_peer[45]  lookupTimeSig:vector  ETV
vector 362103  Network.dyn_peer[51]  lookupHopsSig:vector  ETV
vector 362102  Network.dyn_peer[51]  lookupTimeSig:vector  ETV
vector 362097  Network.dyn_peer[48]  lookupHopsSig:vector  ETV
vector 362096  Network.dyn_peer[48]  lookupTimeSig:vector  ETV
vector 362109  Network.dyn_peer[54]  lookupHopsSig:vector  ETV
vector 362108  Network.dyn_peer[54]  lookupTimeSig:vector  ETV
vector 362105  Network.dyn_peer[52]  lookupHopsSig:vector  ETV
vector 362104  Network.dyn_peer[52]  lookupTimeSig:vector  ETV
vector 362107  Network.dyn_peer[53]  lookupHopsSig:vector  ETV
vector 362106  Network.dyn_peer[53]  lookupTimeSig:vector  ETV
vector 362099  Network.dyn_peer[49]  lookupHopsSig:vector  ETV
vector 362098  Network.dyn_peer[49]  lookupTimeSig:vector  ETV
vector 362115  Network.dyn_peer[57]  lookupHopsSig:vector  ETV
vector 362114  Network.dyn_peer[57]  lookupTimeSig:vector  ETV
vector 362111  Network.dyn_peer[55]  lookupHopsSig:vector  ETV
vector 362110  Network.dyn_peer[55]  lookupTimeSig:vector  ETV
vector 362119  Network.dyn_peer[59]  lookupHopsSig:vector  ETV
vector 362118  Network.dyn_peer[59]  lookupTimeSig:vector  ETV
vector 362113  Network.dyn_peer[56]  lookupHopsSig:vector  ETV
vector 362112  Network.dyn_peer[56]  lookupTimeSig:vector  ETV
vector 362121  Network.dyn_peer[60]  lookupHopsSig:vector  ETV
vector 362120  Network.dyn_peer[60]  lookupTimeSig:vector  ETV
vector 362123  Network.dyn_peer[61]  lookupHopsSig:vector  ETV
vector 362122  Network.dyn_peer[61]  lookupTimeSig:vector  ETV
vector 362125  Network.dyn_peer[62]  lookupHopsSig:vector  ETV
vector 362124  Network.dyn_peer[62]  lookupTimeSig:vector  ETV
vector 362117  Network.dyn_peer[58]  lookupHopsSig:vector  ETV
vector 362116  Network.dyn_peer[58]  lookupTimeSig:vector  ETV
vector 362127  Network.dyn_peer[63]  lookupHopsSig:vector  ETV
vector 362126  Network.dyn_peer[63]  lookupTimeSig:vector  ETV
vector 362129  Network.dyn_peer[64]  lookupHopsSig:vector  ETV
vector 362128  Network.dyn_peer[64]  lookupTimeSig:vector  ETV
vector 362133  Network.dyn_peer[66]  lookupHopsSig:vector  ETV
vector 362132  Network.dyn_peer[66]  lookupTimeSig:vector  ETV
vector 362139  Network.dyn_peer[69]  lookupHopsSig:vector  ETV
vector 362138  Network.dyn_peer[69]  lookupTimeSig:vector  ETV
vector 362131  Network.dyn_peer[65]  lookupHopsSig:vector  ETV
vector 362130  Network.dyn_peer[65]  lookupTimeSig:vector  ETV
vector 362135  Network.dyn_peer[67]  lookupHopsSig:vector  ETV
vector 362134  Network.dyn_peer[67]  lookupTimeSig:vector  ETV
vector 362143  Network.dyn_peer[71]  lookupHopsSig:vector  ETV
vector 362142  Network.dyn_peer[71]  lookupTimeSig:vector  ETV
vector 362137  Network.dyn_peer[68]  lookupHopsSig:vector  ETV
vector 362136  Network.dyn_peer[68]  lookupTimeSig:vector  ETV
vector 362141  Network.dyn_peer[70]  lookupHopsSig:vector  ETV
vector 362140  Network.dyn_peer[70]  lookupTimeSig:vector  ETV
vector 362157  Network.dyn_peer[78]  lookupHopsSig:vector  ETV
vector 362156  Network.dyn_peer[78]  lookupTimeSig:vector  ETV
vector 362151  Network.dyn_peer[75]  lookupHopsSig:vector  ETV
vector 362150  Network.dyn_peer[75]  lookupTimeSig:vector  ETV
vector 362147  Network.dyn_peer[73]  lookupHopsSig:vector  ETV
vector 362146  Network.dyn_peer[73]  lookupTimeSig:vector  ETV
vector 362145  Network.dyn_peer[72]  lookupHopsSig:vector  ETV
vector 362144  Network.dyn_peer[72]  lookupTimeSig:vector  ETV
vector 362155  Network.dyn_peer[77]  lookupHopsSig:vector  ETV
vector 362154  Network.dyn_peer[77]  lookupTimeSig:vector  ETV
vector 362165  Network.dyn_peer[82]  lookupHopsSig:vector  ETV
vector 362164  Network.dyn_peer[82]  lookupTimeSig:vector  ETV
vector 362153  Network.dyn_peer[76]  lookupHopsSig:vector  ETV
vector 362152  Network.dyn_peer[76]  lookupTimeSig:vector  ETV
vector 362149  Network.dyn_peer[74]  lookupHopsSig:vector  ETV
vector 362148  Network.dyn_peer[74]  lookupTimeSig:vector  ETV
vector 362159  Network.dyn_peer[79]  lookupHopsSig:vector  ETV
vector 362158  Network.dyn_peer[79]  lookupTimeSig:vector  ETV
vector 362167  Network.dyn_peer[83]  lookupHopsSig:vector  ETV
vector 362166  Network.dyn_peer[83]  lookupTimeSig:vector  ETV
vector 362161  Network.dyn_peer[80]  lookupHopsSig:vector  ETV
vector 362160  Network.dyn_peer[80]  lookupTimeSig:vector  ETV
vector 362171  Network.dyn_peer[85]  lookupHopsSig:vector  ETV
vector 362170  Network.dyn_peer[85]  lookupTimeSig:vector  ETV
vector 362177  Network.dyn_peer[88]  lookupHopsSig:vector  ETV
vector 362176  Network.dyn_peer[88]  lookupTimeSig:vector  ETV
vector 362173  Network.dyn_peer[86]  lookupHopsSig:vector  ETV
vector 362172  Network.dyn_peer[86]  lookupTimeSig:vector  ETV
vector 362169  Network.dyn_peer[84]  lookupHopsSig:vector  ETV
vector 362168  Network.dyn_peer[84]  lookupTimeSig:vector  ETV
vector 362179  Network.dyn_peer[89]  lookupHopsSig:vector  ETV
vector 362178  Network.dyn_peer[89]  lookupTimeSig:vector  ETV
vector 362187  Network.dyn_peer[93]  lookupHopsSig:vector  ETV
vector 362186  Network.dyn_peer[93]  lookupTimeSig:vector  ETV
vector 362183  Network.dyn_peer[91]  lookupHopsSig:vector  ETV
vector 362182  Network.dyn_peer[91]  lookupTimeSig:vector  ETV
vector 362163  Network.dyn_peer[81]  lookupHopsSig:vector  ETV
vector 362162  Network.dyn_peer[81]  lookupTimeSig:vector  ETV
vector 362181  Network.dyn_peer[90]  lookupHopsSig:vector  ETV
vector 362180  Network.dyn_peer[90]  lookupTimeSig:vector  ETV
vector 362175  Network.dyn_peer[87]  lookupHopsSig:vector  ETV
vector 362174  Network.dyn_peer[87]  lookupTimeSig:vector  ETV
vector 362189  Network.dyn_peer[94]  lookupHopsSig:vector  ETV
vector 362188  Network.dyn_peer[94]  lookupTimeSig:vector  ETV
vector 362191  Network.dyn_peer[95]  lookupHopsSig:vector  ETV
vector 362190  Network.dyn_peer[95]  lookupTimeSig:vector  ETV
vector 362195  Network.dyn_peer[97]  lookupHopsSig:vector  ETV
vector 362194  Network.dyn_peer[97]  lookupTimeSig:vector  ETV
vector 362185  Network.dyn_peer[92]  lookupHopsSig:vector  ETV
vector 362184  Network.dyn_peer[92]  lookupTimeSig:vector  ETV
vector 362193  Network.dyn_peer[96]  lookupHopsSig:vector  ETV
vector 362192  Network.dyn_peer[96]  lookupTimeSig:vector  ETV
vector 362199  Network.dyn_peer[99]  lookupHopsSig:vector  ETV
vector 362198  Network.dyn_peer[99]  lookupTimeSig:vector  ETV
vector 362203  Network.dyn_peer[101]  lookupHopsSig:vector  ETV
vector 362202  Network.dyn_peer[101]  lookupTimeSig:vector  ETV
vector 362205  Network.dyn_peer[102]  lookupHopsSig:vector  ETV
vector 362204  Network.dyn_peer[102]  lookupTimeSig:vector  ETV
vector 362201  Network.dyn_peer[100]  lookupHopsSig:vector  ETV
vector 362200  Network.dyn_peer[100]  lookupTimeSig:vector  ETV
vector 362209  Network.dyn_peer[104]  lookupHopsSig:vector  ETV
vector 362208  Network.dyn_peer[104]  lookupTimeSig:vector  ETV
vector 362217  Network.dyn_peer[108]  lookupHopsSig:vector  ETV
vector 362216  Network.dyn_peer[108]  lookupTimeSig:vector  ETV
vector 362197  Network.dyn_peer[98]  lookupHopsSig:vector  ETV
vector 362196  Network.dyn_peer[98]  lookupTimeSig:vector  ETV
vector 362213  Network.dyn_peer[106]  lookupHopsSig:vector  ETV
vector 362212  Network.dyn_peer[106]  lookupTimeSig:vector  ETV
vector 362223  Network.dyn_peer[111]  lookupHopsSig:vector  ETV
vector 362222  Network.dyn_peer[111]  lookupTimeSig:vector  ETV
vector 362211  Network.dyn_peer[105]  lookupHopsSig:vector  ETV
vector 362210  Network.dyn_peer[105]  lookupTimeSig:vector  ETV
vector 362207  Network.dyn_peer[103]  lookupHopsSig:vector  ETV
vector 362206  Network.dyn_peer[103]  lookupTimeSig:vector  ETV
vector 362215  Network.dyn_peer[107]  lookupHopsSig:vector  ETV
vector 362214  Network.dyn_peer[107]  lookupTimeSig:vector  ETV
vector 362229  Network.dyn_peer[114]  lookupHopsSig:vector  ETV
vector 362228  Network.dyn_peer[114]  lookupTimeSig:vector  ETV
vector 362225  Network.dyn_peer[112]  lookupHopsSig:vector  ETV
vector 362224  Network.dyn_peer[112]  lookupTimeSig:vector  ETV
vector 362221  Network.dyn_peer[110]  lookupHopsSig:vector  ETV
vector 362220  Network.dyn_peer[110]  lookupTimeSig:vector  ETV
vector 362227  Network.dyn_peer[113]  lookupHopsSig:vector  ETV
vector 362226  Network.dyn_peer[113]  lookupTimeSig:vector  ETV
vector 362219  Network.dyn_peer[109]  lookupHopsSig:vector  ETV
vector 362218  Network.dyn_peer[109]  lookupTimeSig:vector  ETV
vector 362231  Network.dyn_peer[115]  lookupHopsSig:vector  ETV
vector 362230  Network.dyn_peer[115]  lookupTimeSig:vector  ETV
vector 362235  Network.dyn_peer[117]  lookupHopsSig:vector  ETV
vector 362234  Network.dyn_peer[117]  lookupTimeSig:vector  ETV
vector 362233  Network.dyn_peer[116]  lookupHopsSig:vector  ETV
vector 362232  Network.dyn_peer[116]  lookupTimeSig:vector  ETV
vector 362237  Network.dyn_peer[118]  lookupHopsSig:vector  ETV
vector 362236  Network.dyn_peer[118]  lookupTimeSig:vector  ETV
vector 362243  Network.dyn_peer[121]  lookupHopsSig:vector  ETV
vector 362242  Network.dyn_peer[121]  lookupTimeSig:vector  ETV
vector 362239  Network.dyn_peer[119]  lookupHopsSig:vector  ETV
vector 362238  Network.dyn_peer[119]  lookupTimeSig:vector  ETV
vector 362247  Network.dyn_peer[123]  lookupHopsSig:vector  ETV
vector 362246  Network.dyn_peer[123]  lookupTimeSig:vector  ETV
vector 362241  Network.dyn_peer[120]  lookupHopsSig:vector  ETV
vector 362240  Network.dyn_peer[120]  lookupTimeSig:vector  ETV
vector 362245  Network.dyn_peer[122]  lookupHopsSig:vector  ETV
vector 362244  Network.dyn_peer[122]  lookupTimeSig:vector  ETV
vector 362255  Network.dyn_peer[127]  lookupHopsSig:vector  ETV
vector 362254  Network.dyn_peer[127]  lookupTimeSig:vector  ETV
vector 362249  Network.dyn_peer[124]  lookupHopsSig:vector  ETV
vector 362248  Network.dyn_peer[124]  lookupTimeSig:vector  ETV
vector 362257  Network.dyn_peer[128]  lookupHopsSig:vector  ETV
vector 362256  Network.dyn_peer[128]  lookupTimeSig:vector  ETV
vector 362259  Network.dyn_peer[129]  lookupHopsSig:vector  ETV
vector 362258  Network.dyn_peer[129]  lookupTimeSig:vector  ETV
vector 362253  Network.dyn_peer[126]  lookupHopsSig:vector  ETV
vector 362252  Network.dyn_peer[126]  lookupTimeSig:vector  ETV
vector 362261  Network.dyn_peer[130]  lookupHopsSig:vector  ETV
vector 362260  Network.dyn_peer[130]  lookupTimeSig:vector  ETV
vector 362251  Network.dyn_peer[125]  lookupHopsSig:vector  ETV
vector 362250  Network.dyn_peer[125]  lookupTimeSig:vector  ETV
vector 362265  Network.dyn_peer[132]  lookupHopsSig:vector  ETV
vector 362264  Network.dyn_peer[132]  lookupTimeSig:vector  ETV
vector 362263  Network.dyn_peer[131]  lookupHopsSig:vector  ETV
vector 362262  Network.dyn_peer[131]  lookupTimeSig:vector  ETV
vector 362267  Network.dyn_peer[133]  lookupHopsSig:vector  ETV
vector 362266  Network.dyn_peer[133]  lookupTimeSig:vector  ETV
vector 362275  Network.dyn_peer[137]  lookupHopsSig:vector  ETV
vector 362274  Network.dyn_peer[137]  lookupTimeSig:vector  ETV
vector 362277  Network.dyn_peer[138]  lookupHopsSig:vector  ETV
vector 362276  Network.dyn_peer[138]  lookupTimeSig:vector  ETV
vector 362271  Network.dyn_peer[135]  lookupHopsSig:vector  ETV
vector 362270  Network.dyn_peer[135]  lookupTimeSig:vector  ETV
vector 362269  Network.dyn_peer[134]  lookupHopsSig:vector  ETV
vector 362268  Network.dyn_peer[134]  lookupTimeSig:vector  ETV
vector 362273  Network.dyn_peer[136]  lookupHopsSig:vector  ETV
vector 362272  Network.dyn_peer[136]  lookupTimeSig:vector  ETV
vector 362281  Network.dyn_peer[140]  lookupHopsSig:vector  ETV
vector 362280  Network.dyn_peer[140]  lookupTimeSig:vector  ETV
vector 362283  Network.dyn_peer[141]  lookupHopsSig:vector  ETV
vector 362282  Network.dyn_peer[141]  lookupTimeSig:vector  ETV
vector 362289  Network.dyn_peer[144]  lookupHopsSig:vector  ETV
vector 362288  Network.dyn_peer[144]  lookupTimeSig:vector  ETV
vector 362291  Network.dyn_peer[145]  lookupHopsSig:vector  ETV
vector 362290  Network.dyn_peer[145]  lookupTimeSig:vector  ETV
vector 362287  Network.dyn_peer[143]  lookupHopsSig:vector  ETV
vector 362286  Network.dyn_peer[143]  lookupTimeSig:vector  ETV
vector 362295  Network.dyn_peer[147]  lookupHopsSig:vector  ETV
vector 362294  Network.dyn_peer[147]  lookupTimeSig:vector  ETV
vector 362297  Network.dyn_peer[148]  lookupHopsSig:vector  ETV
vector 362296  Network.dyn_peer[148]  lookupTimeSig:vector  ETV
vector 362285  Network.dyn_peer[142]  lookupHopsSig:vector  ETV
vector 362284  Network.dyn_peer[142]  lookupTimeSig:vector  ETV
vector 362279  Network.dyn_peer[139]  lookupHopsSig:vector  ETV
vector 362278  Network.dyn_peer[139]  lookupTimeSig:vector  ETV
vector 362305  Network.dyn_peer[152]  lookupHopsSig:vector  ETV
vector 362304  Network.dyn_peer[152]  lookupTimeSig:vector  ETV
vector 362301  Network.dyn_peer[150]  lookupHopsSig:vector  ETV
vector 362300  Network.dyn_peer[150]  lookupTimeSig:vector  ETV
vector 362293  Network.dyn_peer[146]  lookupHopsSig:vector  ETV
vector 362292  Network.dyn_peer[146]  lookupTimeSig:vector  ETV
vector 362303  Network.dyn_peer[151]  lookupHopsSig:vector  ETV
vector 362302  Network.dyn_peer[151]  lookupTimeSig:vector  ETV
vector 362313  Network.dyn_peer[156]  lookupHopsSig:vector  ETV
vector 362312  Network.dyn_peer[156]  lookupTimeSig:vector  ETV
vector 362299  Network.dyn_peer[149]  lookupHopsSig:vector  ETV
vector 362298  Network.dyn_peer[149]  lookupTimeSig:vector  ETV
vector 362311  Network.dyn_peer[155]  lookupHopsSig:vector  ETV
vector 362310  Network.dyn_peer[155]  lookupTimeSig:vector  ETV
vector 362315  Network.dyn_peer[157]  lookupHopsSig:vector  ETV
vector 362314  Network.dyn_peer[157]  lookupTimeSig:vector  ETV
vector 362307  Network.dyn_peer[153]  lookupHopsSig:vector  ETV
vector 362306  Network.dyn_peer[153]  lookupTimeSig:vector  ETV
vector 362309  Network.dyn_peer[154]  lookupHopsSig:vector  ETV
vector 362308  Network.dyn_peer[154]  lookupTimeSig:vector  ETV
vector 362319  Network.dyn_peer[159]  lookupHopsSig:vector  ETV
vector 362318  Network.dyn_peer[159]  lookupTimeSig:vector  ETV
vector 362325  Network.dyn_peer[162]  lookupHopsSig:vector  ETV
vector 362324  Network.dyn_peer[162]  lookupTimeSig:vector  ETV
vector 362327  Network.dyn_peer[163]  lookupHopsSig:vector  ETV
vector 362326  Network.dyn_peer[163]  lookupTimeSig:vector  ETV
vector 362331  Network.dyn_peer[165]  lookupHopsSig:vector  ETV
vector 362330  Network.dyn_peer[165]  lookupTimeSig:vector  ETV
vector 362337  Network.dyn_peer[168]  lookupHopsSig:vector  ETV
vector 362336  Network.dyn_peer[168]  lookupTimeSig:vector  ETV
vector 362321  Network.dyn_peer[160]  lookupHopsSig:vector  ETV
vector 362320  Network.dyn_peer[160]  lookupTimeSig:vector  ETV
vector 362329  Network.dyn_peer[164]  lookupHopsSig:vector  ETV
vector 362328  Network.dyn_peer[164]  lookupTimeSig:vector  ETV
vector 362323  Network.dyn_peer[161]  lookupHopsSig:vector  ETV
vector 362322  Network.dyn_peer[161]  lookupTimeSig:vector  ETV
vector 362317  Network.dyn_peer[158]  lookupHopsSig:vector  ETV
vector 362316  Network.dyn_peer[158]  lookupTimeSig:vector  ETV
vector 362345  Network.dyn_peer[172]  lookupHopsSig:vector  ETV
vector 362344  Network.dyn_peer[172]  lookupTimeSig:vector  ETV
vector 362347  Network.dyn_peer[173]  lookupHopsSig:vector  ETV
vector 362346  Network.dyn_peer[173]  lookupTimeSig:vector  ETV
vector 362335  Network.dyn_peer[167]  lookupHopsSig:vector  ETV
vector 362334  Network.dyn_peer[167]  lookupTimeSig:vector  ETV
vector 362333  Network.dyn_peer[166]  lookupHopsSig:vector  ETV
vector 362332  Network.dyn_peer[166]  lookupTimeSig:vector  ETV
vector 362341  Network.dyn_peer[170]  lookupHopsSig:vector  ETV
vector 362340  Network.dyn_peer[170]  lookupTimeSig:vector  ETV
vector 362343  Network.dyn_peer[171]  lookupHopsSig:vector  ETV
vector 362342  Network.dyn_peer[171]  lookupTimeSig:vector  ETV
vector 362339  Network.dyn_peer[169]  lookupHopsSig:vector  ETV
vector 362338  Network.dyn_peer[169]  lookupTimeSig:vector  ETV
vector 362349  Network.dyn_peer[174]  lookupHopsSig:vector  ETV
vector 362348  Network.dyn_peer[174]  lookupTimeSig:vector  ETV
vector 362353  Network.dyn_peer[176]  lookupHopsSig:vector  ETV
vector 362352  Network.dyn_peer[176]  lookupTimeSig:vector  ETV
vector 362357  Network.dyn_peer[178]  lookupHopsSig:vector  ETV
vector 362356  Network.dyn_peer[178]  lookupTimeSig:vector  ETV
vector 362355  Network.dyn_peer[177]  lookupHopsSig:vector  ETV
vector 362354  Network.dyn_peer[177]  lookupTimeSig:vector  ETV
vector 362351  Network.dyn_peer[175]  lookupHopsSig:vector  ETV
vector 362350  Network.dyn_peer[175]  lookupTimeSig:vector  ETV
vector 362365  Network.dyn_peer[182]  lookupHopsSig:vector  ETV
vector 362364  Network.dyn_peer[182]  lookupTimeSig:vector  ETV
vector 362359  Network.dyn_peer[179]  lookupHopsSig:vector  ETV
vector 362358  Network.dyn_peer[179]  lookupTimeSig:vector  ETV
vector 362369  Network.dyn_peer[184]  lookupHopsSig:vector  ETV
vector 362368  Network.dyn_peer[184]  lookupTimeSig:vector  ETV
vector 362361  Network.dyn_peer[180]  lookupHopsSig:vector  ETV
vector 362360  Network.dyn_peer[180]  lookupTimeSig:vector  ETV
vector 362371  Network.dyn_peer[185]  lookupHopsSig:vector  ETV
vector 362370  Network.dyn_peer[185]  lookupTimeSig:vector  ETV
vector 362377  Network.dyn_peer[188]  lookupHopsSig:vector  ETV
vector 362376  Network.dyn_peer[188]  lookupTimeSig:vector  ETV
vector 362367  Network.dyn_peer[183]  lookupHopsSig:vector  ETV
vector 362366  Network.dyn_peer[183]  lookupTimeSig:vector  ETV
vector 362363  Network.dyn_peer[181]  lookupHopsSig:vector  ETV
vector 362362  Network.dyn_peer[181]  lookupTimeSig:vector  ETV
vector 362375  Network.dyn_peer[187]  lookupHopsSig:vector  ETV
vector 362374  Network.dyn_peer[187]  lookupTimeSig:vector  ETV
vector 362381  Network.dyn_peer[190]  lookupHopsSig:vector  ETV
vector 362380  Network.dyn_peer[190]  lookupTimeSig:vector  ETV
vector 362383  Network.dyn_peer[191]  lookupHopsSig:vector  ETV
vector 362382  Network.dyn_peer[191]  lookupTimeSig:vector  ETV
vector 362373  Network.dyn_peer[186]  lookupHopsSig:vector  ETV
vector 362372  Network.dyn_peer[186]  lookupTimeSig:vector  ETV
vector 362379  Network.dyn_peer[189]  lookupHopsSig:vector  ETV
vector 362378  Network.dyn_peer[189]  lookupTimeSig:vector  ETV
vector 362391  Network.dyn_peer[195]  lookupHopsSig:vector  ETV
vector 362390  Network.dyn_peer[195]  lookupTimeSig:vector  ETV
vector 362387  Network.dyn_peer[193]  lookupHopsSig:vector  ETV
vector 362386  Network.dyn_peer[193]  lookupTimeSig:vector  ETV
vector 362389  Network.dyn_peer[194]  lookupHopsSig:vector  ETV
vector 362388  Network.dyn_peer[194]  lookupTimeSig:vector  ETV
vector 362395  Network.dyn_peer[197]  lookupHopsSig:vector  ETV
vector 362394  Network.dyn_peer[197]  lookupTimeSig:vector  ETV
vector 362401  Network.dyn_peer[200]  lookupHopsSig:vector  ETV
vector 362400  Network.dyn_peer[200]  lookupTimeSig:vector  ETV
vector 362399  Network.dyn_peer[199]  lookupHopsSig:vector  ETV
vector 362398  Network.dyn_peer[199]  lookupTimeSig:vector  ETV
vector 362403  Network.dyn_peer[201]  lookupHopsSig:vector  ETV
vector 362402  Network.dyn_peer[201]  lookupTimeSig:vector  ETV
vector 362407  Network.dyn_peer[203]  lookupHopsSig:vector  ETV
vector 362406  Network.dyn_peer[203]  lookupTimeSig:vector  ETV
vector 362385  Network.dyn_peer[192]  lookupHopsSig:vector  ETV
vector 362384  Network.dyn_peer[192]  lookupTimeSig:vector  ETV
vector 362417  Network.dyn_peer[208]  lookupHopsSig:vector  ETV
vector 362416  Network.dyn_peer[208]  lookupTimeSig:vector  ETV
vector 362413  Network.dyn_peer[206]  lookupHopsSig:vector  ETV
vector 362412  Network.dyn_peer[206]  lookupTimeSig:vector  ETV
vector 362411  Network.dyn_peer[205]  lookupHopsSig:vector  ETV
vector 362410  Network.dyn_peer[205]  lookupTimeSig:vector  ETV
vector 362397  Network.dyn_peer[198]  lookupHopsSig:vector  ETV
vector 362396  Network.dyn_peer[198]  lookupTimeSig:vector  ETV
vector 362405  Network.dyn_peer[202]  lookupHopsSig:vector  ETV
vector 362404  Network.dyn_peer[202]  lookupTimeSig:vector  ETV
vector 362393  Network.dyn_peer[196]  lookupHopsSig:vector  ETV
vector 362392  Network.dyn_peer[196]  lookupTimeSig:vector  ETV
vector 362409  Network.dyn_peer[204]  lookupHopsSig:vector  ETV
vector 362408  Network.dyn_peer[204]  lookupTimeSig:vector  ETV
vector 362421  Network.dyn_peer[210]  lookupHopsSig:vector  ETV
vector 362420  Network.dyn_peer[210]  lookupTimeSig:vector  ETV
vector 362419  Network.dyn_peer[209]  lookupHopsSig:vector  ETV
vector 362418  Network.dyn_peer[209]  lookupTimeSig:vector  ETV
vector 362423  Network.dyn_peer[211]  lookupHopsSig:vector  ETV
vector 362422  Network.dyn_peer[211]  lookupTimeSig:vector  ETV
vector 362425  Network.dyn_peer[212]  lookupHopsSig:vector  ETV
vector 362424  Network.dyn_peer[212]  lookupTimeSig:vector  ETV
vector 362441  Network.dyn_peer[220]  lookupHopsSig:vector  ETV
vector 362440  Network.dyn_peer[220]  lookupTimeSig:vector  ETV
vector 362435  Network.dyn_peer[217]  lookupHopsSig:vector  ETV
vector 362434  Network.dyn_peer[217]  lookupTimeSig:vector  ETV
vector 362433  Network.dyn_peer[216]  lookupHopsSig:vector  ETV
vector 362432  Network.dyn_peer[216]  lookupTimeSig:vector  ETV
vector 362427  Network.dyn_peer[213]  lookupHopsSig:vector  ETV
vector 362426  Network.dyn_peer[213]  lookupTimeSig:vector  ETV
vector 362439  Network.dyn_peer[219]  lookupHopsSig:vector  ETV
vector 362438  Network.dyn_peer[219]  lookupTimeSig:vector  ETV
vector 362429  Network.dyn_peer[214]  lookupHopsSig:vector  ETV
vector 362428  Network.dyn_peer[214]  lookupTimeSig:vector  ETV
vector 362437  Network.dyn_peer[218]  lookupHopsSig:vector  ETV
vector 362436  Network.dyn_peer[218]  lookupTimeSig:vector  ETV
vector 362415  Network.dyn_peer[207]  lookupHopsSig:vector  ETV
vector 362414  Network.dyn_peer[207]  lookupTimeSig:vector  ETV
vector 362431  Network.dyn_peer[215]  lookupHopsSig:vector  ETV
vector 362430  Network.dyn_peer[215]  lookupTimeSig:vector  ETV
vector 362445  Network.dyn_peer[222]  lookupHopsSig:vector  ETV
vector 362444  Network.dyn_peer[222]  lookupTimeSig:vector  ETV
vector 362447  Network.dyn_peer[223]  lookupHopsSig:vector  ETV
vector 362446  Network.dyn_peer[223]  lookupTimeSig:vector  ETV
vector 362451  Network.dyn_peer[225]  lookupHopsSig:vector  ETV
vector 362450  Network.dyn_peer[225]  lookupTimeSig:vector  ETV
vector 362455  Network.dyn_peer[227]  lookupHopsSig:vector  ETV
vector 362454  Network.dyn_peer[227]  lookupTimeSig:vector  ETV
vector 362449  Network.dyn_peer[224]  lookupHopsSig:vector  ETV
vector 362448  Network.dyn_peer[224]  lookupTimeSig:vector  ETV
vector 362461  Network.dyn_peer[230]  lookupHopsSig:vector  ETV
vector 362460  Network.dyn_peer[230]  lookupTimeSig:vector  ETV
vector 362457  Network.dyn_peer[228]  lookupHopsSig:vector  ETV
vector 362456  Network.dyn_peer[228]  lookupTimeSig:vector  ETV
vector 362465  Network.dyn_peer[232]  lookupHopsSig:vector  ETV
vector 362464  Network.dyn_peer[232]  lookupTimeSig:vector  ETV
vector 362443  Network.dyn_peer[221]  lookupHopsSig:vector  ETV
vector 362442  Network.dyn_peer[221]  lookupTimeSig:vector  ETV
vector 362459  Network.dyn_peer[229]  lookupHopsSig:vector  ETV
vector 362458  Network.dyn_peer[229]  lookupTimeSig:vector  ETV
vector 362467  Network.dyn_peer[233]  lookupHopsSig:vector  ETV
vector 362466  Network.dyn_peer[233]  lookupTimeSig:vector  ETV
vector 362477  Network.dyn_peer[238]  lookupHopsSig:vector  ETV