file 831918 1369674140                                          
version 2
run Stability-201-20130521-22:41:16-23591
attr configname Stability
attr datetime 20130521-22:41:16
attr experiment Stability
attr inifile omnetpp.ini
attr iterationvars $0=0.125
attr iterationvars2 "$0=0.125, $repetition=21"
attr measurement $0=0.125
attr network Network
attr processid 23591
attr repetition 21
attr replication #21
attr resultdir results
attr runnumber 201
attr seedset 201
vector 402001  Network.dyn_peer[0]  lookupHopsSig:vector  ETV
402001	128964 741 114 82503 20.425 100.550538639372 25 1 18 152 1338
vector 402000  Network.dyn_peer[0]  lookupTimeSig:vector  ETV
402000	128184 780 114 82503 20.425 100.550538639372 25 0.2 1.9 17.6 16.6
vector 402003  Network.dyn_peer[1]  lookupHopsSig:vector  ETV
402003	130228 497 119 39179 20.45 69.866752451296 17 1 17 129 1443
vector 402002  Network.dyn_peer[1]  lookupTimeSig:vector  ETV
402002	129705 523 119 39179 20.45 69.866752451296 17 0.2 1.8 14.5 17.13
vector 402005  Network.dyn_peer[2]  lookupHopsSig:vector  ETV
402005	131524 759 124 154091 20.475 141.696726735423 25 1 21 209 2565
vector 402004  Network.dyn_peer[2]  lookupTimeSig:vector  ETV
402004	130725 799 124 154091 20.475 141.696726735423 25 0.1 2.2 23.3 30.05
vector 402011  Network.dyn_peer[5]  lookupHopsSig:vector  ETV
402011	139152 1521 151 166606 20.75 148.066325487554 49 0 43 505 9925
vector 402010  Network.dyn_peer[5]  lookupTimeSig:vector  ETV
402010	137555 1597 151 166606 20.75 148.066325487554 49 0 4.4 55.3 109.83
vector 402009  Network.dyn_peer[4]  lookupHopsSig:vector  ETV
402009	136149 1406 172 166054 20.925 147.712671391686 46 1 23 392 4514
vector 402008  Network.dyn_peer[4]  lookupTimeSig:vector  ETV
402008	134675 1474 172 166054 20.925 147.712671391686 46 0.2 2.4 43.7 53.37
vector 402007  Network.dyn_peer[3]  lookupHopsSig:vector  ETV
402007	133513 1162 184 91935 21 106.560911251736 39 1 22 258 2658
vector 402006  Network.dyn_peer[3]  lookupTimeSig:vector  ETV
402006	132283 1230 184 91935 21 106.560911251736 39 0.2 2.3 29.6 32.02
vector 402013  Network.dyn_peer[6]  lookupHopsSig:vector  ETV
402013	141680 959 196 170661 21.075 151.08097638691 31 1 43 323 6185
vector 402012  Network.dyn_peer[6]  lookupTimeSig:vector  ETV
402012	140673 1007 196 170661 21.075 151.08097638691 31 0.2 4.4 35.3 68.57
vector 402015  Network.dyn_peer[7]  lookupHopsSig:vector  ETV
402015	143508 820 205 65841 21.1 89.263521840419 28 1 32 175 2159
vector 402014  Network.dyn_peer[7]  lookupTimeSig:vector  ETV
402014	142639 869 205 65841 21.1 89.263521840419 28 0.1 3.3 20.2 25.34
vector 402017  Network.dyn_peer[8]  lookupHopsSig:vector  ETV
402017	145290 917 261 175856 21.425 159.604805217743 30 1 32 321 5863
vector 402016  Network.dyn_peer[8]  lookupTimeSig:vector  ETV
402016	144328 962 261 175856 21.425 159.604805217743 30 0.2 3.3 35 65.28
vector 402019  Network.dyn_peer[9]  lookupHopsSig:vector  ETV
402019	146606 375 268 164326 21.45 146.726728112243 13 1 22 74 804
vector 402018  Network.dyn_peer[9]  lookupTimeSig:vector  ETV
402018	146207 399 268 164326 21.45 146.726728112243 13 0.2 2.3 8.6 9.6
vector 402027  Network.dyn_peer[13]  lookupHopsSig:vector  ETV
402027	152859 1135 332 121477 21.75 124.565889542693 37 0 46 349 6211
vector 402026  Network.dyn_peer[13]  lookupTimeSig:vector  ETV
402026	151674 1185 332 121477 21.75 124.565889542693 37 0 4.7 38.5 69.45
vector 402021  Network.dyn_peer[10]  lookupHopsSig:vector  ETV
402021	147607 594 364 69923 21.875 92.185481194845 20 1 21 160 2072
vector 402020  Network.dyn_peer[10]  lookupTimeSig:vector  ETV
402020	146981 626 364 69923 21.875 92.185481194845 20 0.2 2.2 17.9 24.01
vector 402023  Network.dyn_peer[11]  lookupHopsSig:vector  ETV
402023	149283 1027 374 82733 21.9 100.701979408818 34 1 22 240 2574
vector 402022  Network.dyn_peer[11]  lookupTimeSig:vector  ETV
402022	148201 1082 374 82733 21.9 100.701979408818 34 0.2 2.3 27.3 30.79
vector 402025  Network.dyn_peer[12]  lookupHopsSig:vector  ETV
402025	151006 668 400 96876 22.025 109.732080246731 22 1 25 219 3193
vector 402024  Network.dyn_peer[12]  lookupTimeSig:vector  ETV
402024	150310 696 400 96876 22.025 109.732080246731 22 0.2 2.6 24 36.44
vector 402033  Network.dyn_peer[16]  lookupHopsSig:vector  ETV
402033	156720 541 482 87989 22.325 104.082409482212 18 1 23 138 1712
vector 402032  Network.dyn_peer[16]  lookupTimeSig:vector  ETV
402032	156149 571 482 87989 22.325 104.082409482212 18 0.2 2.4 15.5 20.01
vector 402029  Network.dyn_peer[14]  lookupHopsSig:vector  ETV
402029	154367 355 494 90942 22.375 105.929532467318 12 3 24 122 1874
vector 402028  Network.dyn_peer[14]  lookupTimeSig:vector  ETV
402028	153994 373 494 90942 22.375 105.929532467318 12 0.4 2.5 13.3 21.19
vector 402031  Network.dyn_peer[15]  lookupHopsSig:vector  ETV
402031	155452 697 503 175788 22.4 159.278105546745 23 1 49 204 4136
vector 402030  Network.dyn_peer[15]  lookupTimeSig:vector  ETV
402030	154722 730 503 175788 22.4 159.278105546745 23 0.2 5 22.6 45.58
vector 402039  Network.dyn_peer[19]  lookupHopsSig:vector  ETV
402039	162747 959 564 133943 22.6 131.439142087645 31 1 34 388 7010
vector 402038  Network.dyn_peer[19]  lookupTimeSig:vector  ETV
402038	161754 993 564 133943 22.6 131.439142087645 31 0.1 3.5 41.8 78.14
vector 402037  Network.dyn_peer[18]  lookupHopsSig:vector  ETV
402037	160688 1066 585 130421 22.675 129.5889105756 35 1 31 282 3690
vector 402036  Network.dyn_peer[18]  lookupTimeSig:vector  ETV
402036	159565 1123 585 130421 22.675 129.5889105756 35 0.2 3.2 31.6 42.82
vector 402035  Network.dyn_peer[17]  lookupHopsSig:vector  ETV
402035	158442 1123 664 153703 22.95 141.518291787856 36 2 24 281 3173
vector 402034  Network.dyn_peer[17]  lookupTimeSig:vector  ETV
402034	157261 1181 664 153703 22.95 141.518291787856 36 0.3 2.5 31.6 37.56
vector 402043  Network.dyn_peer[21]  lookupHopsSig:vector  ETV
402043	164851 530 668 84672 22.95 101.968970497983 18 2 27 126 1466
vector 402042  Network.dyn_peer[21]  lookupTimeSig:vector  ETV
402042	164294 557 668 84672 22.95 101.968970497983 18 0.2 2.8 14.3 17.31
vector 402041  Network.dyn_peer[20]  lookupHopsSig:vector  ETV
402041	164008 286 704 15685 23.025 46.81345550883 10 1 13 55 471
vector 402040  Network.dyn_peer[20]  lookupTimeSig:vector  ETV
402040	163706 302 704 15685 23.025 46.81345550883 10 0.2 1.4 6.4 5.82
vector 402045  Network.dyn_peer[22]  lookupHopsSig:vector  ETV
402045	166047 633 784 85004 23.275 102.178324692505 21 1 32 206 3090
vector 402044  Network.dyn_peer[22]  lookupTimeSig:vector  ETV
402044	165381 666 784 85004 23.275 102.178324692505 21 0.2 3.3 22.6 35.14
vector 402049  Network.dyn_peer[24]  lookupHopsSig:vector  ETV
402049	169547 767 802 137001 23.325 133.061225677902 25 1 36 261 4369
vector 402048  Network.dyn_peer[24]  lookupTimeSig:vector  ETV
402048	168741 806 802 137001 23.325 133.061225677902 25 0.2 3.7 28.5 49.11
vector 402051  Network.dyn_peer[25]  lookupHopsSig:vector  ETV
402051	171437 1073 878 140653 23.55 135.029885141397 35 1 26 363 5859
vector 402050  Network.dyn_peer[25]  lookupTimeSig:vector  ETV
402050	170314 1123 878 140653 23.55 135.029885141397 35 0.2 2.7 39.7 66.13
vector 402053  Network.dyn_peer[26]  lookupHopsSig:vector  ETV
402053	173516 955 890 142337 23.575 135.922540234414 31 1 22 243 2917
vector 402052  Network.dyn_peer[26]  lookupTimeSig:vector  ETV
402052	172510 1006 890 142337 23.575 135.922540234414 31 0.2 2.3 27.3 34.29
vector 402047  Network.dyn_peer[23]  lookupHopsSig:vector  ETV
402047	167736 1005 897 171612 23.6 151.974460920642 32 1 28 294 3912
vector 402046  Network.dyn_peer[23]  lookupTimeSig:vector  ETV
402046	166680 1056 897 171612 23.6 151.974460920642 32 0.2 2.9 32.5 45.19
vector 402055  Network.dyn_peer[27]  lookupHopsSig:vector  ETV
402055	175381 873 982 176463 23.9 164.203694260223 28 1 38 351 6581
vector 402054  Network.dyn_peer[27]  lookupTimeSig:vector  ETV
402054	174471 910 982 176463 23.9 164.203694260223 28 0.2 3.9 37.8 73.02
vector 402057  Network.dyn_peer[28]  lookupHopsSig:vector  ETV
402057	176821 540 991 52639 23.925 79.967767451863 18 1 19 142 1886
vector 402056  Network.dyn_peer[28]  lookupTimeSig:vector  ETV
402056	176254 567 991 52639 23.925 79.967767451863 18 0.2 2 15.9 21.81
vector 402059  Network.dyn_peer[29]  lookupHopsSig:vector  ETV
402059	178406 997 1022 144216 24.05 136.891281396227 32 2 30 325 5123
vector 402058  Network.dyn_peer[29]  lookupTimeSig:vector  ETV
402058	177361 1045 1022 144216 24.05 136.891281396227 32 0.3 3.1 35.6 57.98
vector 402063  Network.dyn_peer[31]  lookupHopsSig:vector  ETV
402063	182945 1145 1072 170186 24.2 150.673291151293 37 1 63 346 7892
vector 402062  Network.dyn_peer[31]  lookupTimeSig:vector  ETV
402062	181740 1205 1072 170186 24.2 150.673291151293 37 0.2 6.4 38.2 86.16
vector 402065  Network.dyn_peer[32]  lookupHopsSig:vector  ETV
402065	184788 664 1109 161338 24.325 145.254740100828 21 2 32 191 3145
vector 402064  Network.dyn_peer[32]  lookupTimeSig:vector  ETV
402064	184090 698 1109 161338 24.325 145.254740100828 21 0.2 3.3 21.1 35.43
vector 402067  Network.dyn_peer[33]  lookupHopsSig:vector  ETV
402067	186883 1369 1136 137660 24.45 133.415944370625 44 1 27 394 5316
vector 402066  Network.dyn_peer[33]  lookupTimeSig:vector  ETV
402066	185452 1431 1136 137660 24.45 133.415944370625 44 0.2 2.8 43.7 61.43
vector 402061  Network.dyn_peer[30]  lookupHopsSig:vector  ETV
402061	180597 1143 1148 169138 24.475 149.788963519397 37 1 38 413 7373
vector 402060  Network.dyn_peer[30]  lookupTimeSig:vector  ETV
402060	179403 1194 1148 169138 24.475 149.788963519397 37 0.2 3.9 44.9 82.23
vector 402071  Network.dyn_peer[35]  lookupHopsSig:vector  ETV
402071	189986 840 1230 130217 24.8 129.477465395126 27 2 25 256 3582
vector 402070  Network.dyn_peer[35]  lookupTimeSig:vector  ETV
402070	189108 878 1230 130217 24.8 129.477465395126 27 0.3 2.6 28.2 41.14
vector 402069  Network.dyn_peer[34]  lookupHopsSig:vector  ETV
402069	188692 416 1264 53861 24.875 80.783881417478 14 1 32 121 1989
vector 402068  Network.dyn_peer[34]  lookupTimeSig:vector  ETV
402068	188252 440 1264 53861 24.875 80.783881417478 14 0.2 3.3 13.4 22.34
vector 402073  Network.dyn_peer[36]  lookupHopsSig:vector  ETV
402073	191479 620 1339 44453 25.125 73.991172658224 21 1 29 157 2021
vector 402072  Network.dyn_peer[36]  lookupTimeSig:vector  ETV
402072	190826 653 1339 44453 25.125 73.991172658224 21 0.2 3 17.7 23.45
vector 402075  Network.dyn_peer[37]  lookupHopsSig:vector  ETV
402075	192530 403 1371 54349 25.25 81.128477432956 14 1 8 73 437
vector 402074  Network.dyn_peer[37]  lookupTimeSig:vector  ETV
402074	192099 431 1371 54349 25.25 81.128477432956 14 0.2 0.9 8.6 5.86
vector 402081  Network.dyn_peer[40]  lookupHopsSig:vector  ETV
402081	196814 221 1436 3284 25.425 29.153546472315 8 2 6 33 147
vector 402080  Network.dyn_peer[40]  lookupTimeSig:vector  ETV
402080	196577 237 1436 3284 25.425 29.153546472315 8 0.3 0.7 4 2.14
vector 402085  Network.dyn_peer[42]  lookupHopsSig:vector  ETV
402085	198817 962 1455 175062 25.475 156.914161316502 31 1 33 290 4246
vector 402084  Network.dyn_peer[42]  lookupTimeSig:vector  ETV
402084	197807 1010 1455 175062 25.475 156.914161316502 31 0.1 3.4 32 48.54
vector 402079  Network.dyn_peer[39]  lookupHopsSig:vector  ETV
402079	196128 449 1467 123817 25.5 125.901297572033 15 1 26 136 2342
vector 402078  Network.dyn_peer[39]  lookupTimeSig:vector  ETV
402078	195654 474 1467 123817 25.5 125.901297572033 15 0.2 2.7 15 26.18
vector 402087  Network.dyn_peer[43]  lookupHopsSig:vector  ETV
402087	200469 655 1536 56009 25.7 82.250556201455 22 1 16 155 1529
vector 402086  Network.dyn_peer[43]  lookupTimeSig:vector  ETV
402086	199779 690 1536 56009 25.7 82.250556201455 22 0.2 1.7 17.6 18.56
vector 402089  Network.dyn_peer[44]  lookupHopsSig:vector  ETV
402089	201753 595 1624 48147 25.925 76.743261239801 20 2 20 140 1662
vector 402088  Network.dyn_peer[44]  lookupTimeSig:vector  ETV
402088	201124 629 1624 48147 25.925 76.743261239801 20 0.3 2.1 15.9 19.55
vector 402083  Network.dyn_peer[41]  lookupHopsSig:vector  ETV
402083	197431 376 1636 67477 25.95 90.433799729715 13 2 13 94 840
vector 402082  Network.dyn_peer[41]  lookupTimeSig:vector  ETV
402082	197035 396 1636 67477 25.95 90.433799729715 13 0.3 1.4 10.6 10.26
vector 402091  Network.dyn_peer[45]  lookupHopsSig:vector  ETV
402091	202751 378 1640 91296 25.95 106.158977036848 13 1 16 58 432
vector 402090  Network.dyn_peer[45]  lookupTimeSig:vector  ETV
402090	202348 403 1640 91296 25.95 106.158977036848 13 0.2 1.7 7 5.56
vector 402077  Network.dyn_peer[38]  lookupHopsSig:vector  ETV
402077	194323 1331 1659 94626 25.975 108.28686964948 43 1 26 414 5396
vector 402076  Network.dyn_peer[38]  lookupTimeSig:vector  ETV
402076	192933 1390 1659 94626 25.975 108.28686964948 43 0.2 2.7 45.6 62.44
vector 402093  Network.dyn_peer[46]  lookupHopsSig:vector  ETV
402093	203893 724 1700 46972 26.075 75.911668284671 24 1 16 188 2048
vector 402092  Network.dyn_peer[46]  lookupTimeSig:vector  ETV
402092	203129 764 1700 46972 26.075 75.911668284671 24 0.2 1.7 21.1 24.43
vector 402095  Network.dyn_peer[47]  lookupHopsSig:vector  ETV
402095	205178 534 1749 55923 26.2 82.191707171629 18 2 26 142 1766
vector 402094  Network.dyn_peer[47]  lookupTimeSig:vector  ETV
402094	204617 561 1749 55923 26.2 82.191707171629 18 0.2 2.7 15.9 20.63
vector 402097  Network.dyn_peer[48]  lookupHopsSig:vector  ETV
402097	206151 417 1804 165020 26.325 147.115521611279 14 1 14 91 771
vector 402096  Network.dyn_peer[48]  lookupTimeSig:vector  ETV
402096	205712 439 1804 165020 26.325 147.115521611279 14 0.2 1.5 10.4 9.62
vector 402103  Network.dyn_peer[51]  lookupHopsSig:vector  ETV
402103	209547 533 1971 57904 26.7 83.566650469083 18 2 23 146 1720
vector 402102  Network.dyn_peer[51]  lookupTimeSig:vector  ETV
402102	208984 563 1971 57904 26.7 83.566650469083 18 0.2 2.4 16.3 20.25
vector 402099  Network.dyn_peer[49]  lookupHopsSig:vector  ETV
402099	207353 746 2089 85000 26.95 102.175738869854 25 1 15 154 1310
vector 402098  Network.dyn_peer[49]  lookupTimeSig:vector  ETV
402098	206568 785 2089 85000 26.95 102.175738869854 25 0.2 1.6 17.8 16.28
vector 402105  Network.dyn_peer[52]  lookupHopsSig:vector  ETV
402105	210889 780 2129 150720 27.025 140.113351822391 25 1 27 260 3790
vector 402104  Network.dyn_peer[52]  lookupTimeSig:vector  ETV
402104	210080 809 2129 150720 27.025 140.113351822391 25 0.2 2.8 28.4 43.26
vector 402109  Network.dyn_peer[54]  lookupHopsSig:vector  ETV
402109	213776 824 2153 110744 27.075 118.040441576967 27 2 20 177 1747
vector 402108  Network.dyn_peer[54]  lookupTimeSig:vector  ETV
402108	212906 870 2153 110744 27.075 118.040441576967 27 0.2 2.1 20.3 21.23
vector 402107  Network.dyn_peer[53]  lookupHopsSig:vector  ETV
402107	212307 599 2242 89898 27.25 105.286452791116 20 1 20 95 781
vector 402106  Network.dyn_peer[53]  lookupTimeSig:vector  ETV
402106	211669 638 2242 89898 27.25 105.286452791116 20 0.2 2.1 11.4 9.8
vector 402111  Network.dyn_peer[55]  lookupHopsSig:vector  ETV
402111	215776 1130 2269 175058 27.3 156.90802269224 36 2 45 417 7605
vector 402110  Network.dyn_peer[55]  lookupTimeSig:vector  ETV
402110	214600 1176 2269 175058 27.3 156.90802269224 36 0.3 4.6 45.2 84.68
vector 402113  Network.dyn_peer[56]  lookupHopsSig:vector  ETV
402113	217078 162 2280 4043 27.325 30.751010065219 6 1 9 31 209
vector 402112  Network.dyn_peer[56]  lookupTimeSig:vector  ETV
402112	216906 172 2280 4043 27.325 30.751010065219 6 0.2 1 3.6 2.72
vector 402115  Network.dyn_peer[57]  lookupHopsSig:vector  ETV
402115	217973 699 2351 113908 27.45 119.947328417424 23 1 25 219 3277
vector 402114  Network.dyn_peer[57]  lookupTimeSig:vector  ETV
402114	217240 733 2351 113908 27.45 119.947328417424 23 0.2 2.6 24.1 37.33
vector 402101  Network.dyn_peer[50]  lookupHopsSig:vector  ETV
402101	208551 433 2367 132597 27.475 130.730926265285 14 5 54 215 5527
vector 402100  Network.dyn_peer[50]  lookupTimeSig:vector  ETV
402100	208099 452 2367 132597 27.475 130.730926265285 14 0.6 5.5 22.8 59.48
vector 402117  Network.dyn_peer[58]  lookupHopsSig:vector  ETV
402117	219405 703 2372 142573 27.475 136.045639606125 23 1 30 237 3773
vector 402116  Network.dyn_peer[58]  lookupTimeSig:vector  ETV
402116	218672 733 2372 142573 27.475 136.045639606125 23 0.1 3.1 25.9 42.67
vector 402119  Network.dyn_peer[59]  lookupHopsSig:vector  ETV
402119	220771 628 2700 34710 28.1 65.855670243135 21 2 20 163 1783
vector 402118  Network.dyn_peer[59]  lookupTimeSig:vector  ETV
402118	220108 663 2700 34710 28.1 65.855670243135 21 0.3 2.1 18.3 21.17
vector 402125  Network.dyn_peer[62]  lookupHopsSig:vector  ETV
402125	225141 568 2745 166187 28.175 147.797278398114 18 2 31 208 3626
vector 402124  Network.dyn_peer[62]  lookupTimeSig:vector  ETV
402124	224545 596 2745 166187 28.175 147.797278398114 18 0.3 3.2 22.5 40.53
vector 402127  Network.dyn_peer[63]  lookupHopsSig:vector  ETV
402127	226316 579 2759 144412 28.2 136.989097180772 19 2 27 229 4363
vector 402126  Network.dyn_peer[63]  lookupTimeSig:vector  ETV
402126	225709 607 2759 144412 28.2 136.989097180772 19 0.2 2.8 24.7 48.35
vector 402121  Network.dyn_peer[60]  lookupHopsSig:vector  ETV
402121	222405 961 2775 172885 28.225 153.352198958458 31 4 30 358 6064
vector 402120  Network.dyn_peer[60]  lookupTimeSig:vector  ETV
402120	221399 1006 2775 172885 28.225 153.352198958458 31 0.5 3.1 38.8 67.98
vector 402123  Network.dyn_peer[61]  lookupHopsSig:vector  ETV
402123	223971 574 2839 105476 28.35 115.080202401261 19 1 21 173 1997
vector 402122  Network.dyn_peer[61]  lookupTimeSig:vector  ETV
402122	223366 605 2839 105476 28.35 115.080202401261 19 0.2 2.2 19.1 23.49
vector 402131  Network.dyn_peer[65]  lookupHopsSig:vector  ETV
402131	229511 409 3010 77619 28.65 97.375035924555 14 2 22 124 1580
vector 402130  Network.dyn_peer[65]  lookupTimeSig:vector  ETV
402130	229078 433 3010 77619 28.65 97.375035924555 14 0.3 2.3 13.7 18.33
vector 402133  Network.dyn_peer[66]  lookupHopsSig:vector  ETV
402133	230431 487 3071 113721 28.775 119.831322416512 16 2 20 137 1743
vector 402132  Network.dyn_peer[66]  lookupTimeSig:vector  ETV
402132	229920 511 3071 113721 28.775 119.831322416512 16 0.3 2.1 15.2 20.24
vector 402135  Network.dyn_peer[67]  lookupHopsSig:vector  ETV
402135	232132 1161 3090 167175 28.8 148.425233645189 37 1 61 480 11142
vector 402134  Network.dyn_peer[67]  lookupTimeSig:vector  ETV
402134	230918 1214 3090 167175 28.8 148.425233645189 37 0.2 6.2 51.6 121.32
vector 402129  Network.dyn_peer[64]  lookupHopsSig:vector  ETV
402129	228013 1065 3105 147322 28.825 138.45562162252 34 1 52 350 6864
vector 402128  Network.dyn_peer[64]  lookupTimeSig:vector  ETV
402128	226895 1118 3105 147322 28.825 138.45562162252 34 0.2 5.3 38.3 75.83
vector 402137  Network.dyn_peer[68]  lookupHopsSig:vector  ETV
402137	233868 555 3158 110904 28.925 118.133585383631 18 1 29 143 1821
vector 402136  Network.dyn_peer[68]  lookupTimeSig:vector  ETV
402136	233293 575 3158 110904 28.925 118.133585383631 18 0.2 3 16 21.18
vector 402139  Network.dyn_peer[69]  lookupHopsSig:vector  ETV
402139	234790 348 3176 55061 28.95 81.600484513 12 2 14 82 706
vector 402138  Network.dyn_peer[69]  lookupTimeSig:vector  ETV
402138	234423 367 3176 55061 28.95 81.600484513 12 0.2 1.5 9.3 8.77
vector 402141  Network.dyn_peer[70]  lookupHopsSig:vector  ETV
402141	235714 550 3345 107581 29.275 116.251815252964 18 1 26 167 2051
vector 402140  Network.dyn_peer[70]  lookupTimeSig:vector  ETV
402140	235138 576 3345 107581 29.275 116.251815252964 18 0.2 2.7 18.4 23.94
vector 402143  Network.dyn_peer[71]  lookupHopsSig:vector  ETV
402143	237437 1124 3361 172181 29.3 152.563438740432 36 1 46 381 7039
vector 402142  Network.dyn_peer[71]  lookupTimeSig:vector  ETV
402142	236264 1173 3361 172181 29.3 152.563438740432 36 0.2 4.7 41.6 78.3
vector 402145  Network.dyn_peer[72]  lookupHopsSig:vector  ETV
402145	239269 672 3516 129637 29.625 129.167372198608 22 2 28 211 3097
vector 402144  Network.dyn_peer[72]  lookupTimeSig:vector  ETV
402144	238561 708 3516 129637 29.625 129.167372198608 22 0.3 2.9 23.2 35.3
vector 402153  Network.dyn_peer[76]  lookupHopsSig:vector  ETV
402153	244657 659 3563 172563 29.725 152.982293516034 21 1 39 266 5234
vector 402152  Network.dyn_peer[76]  lookupTimeSig:vector  ETV
402152	243976 681 3563 172563 29.725 152.982293516034 21 0.1 4 28.6 57.84
vector 402149  Network.dyn_peer[74]  lookupHopsSig:vector  ETV
402149	242438 742 3620 106154 29.875 115.474713830605 24 1 20 232 2842
vector 402148  Network.dyn_peer[74]  lookupTimeSig:vector  ETV
402148	241665 773 3620 106154 29.875 115.474713830605 24 0.2 2.1 25.5 33.19
vector 402155  Network.dyn_peer[77]  lookupHopsSig:vector  ETV
402155	245794 454 3666 108075 29.95 116.528732025533 15 1 30 138 2174
vector 402154  Network.dyn_peer[77]  lookupTimeSig:vector  ETV
402154	245316 478 3666 108075 29.95 116.528732025533 15 0.2 3.1 15.2 24.6
vector 402157  Network.dyn_peer[78]  lookupHopsSig:vector  ETV
402157	247128 836 3679 155420 29.975 142.338778904653 27 1 34 218 2914
vector 402156  Network.dyn_peer[78]  lookupTimeSig:vector  ETV
402156	246248 880 3679 155420 29.975 142.338778904653 27 0.1 3.5 24.4 33.74
vector 402161  Network.dyn_peer[80]  lookupHopsSig:vector  ETV
402161	249238 656 3746 52901 30.125 80.147518199885 22 0 16 128 1092
vector 402160  Network.dyn_peer[80]  lookupTimeSig:vector  ETV
402160	248546 692 3746 52901 30.125 80.147518199885 22 0 1.7 14.9 13.69
vector 402147  Network.dyn_peer[73]  lookupHopsSig:vector  ETV
402147	240823 842 3888 74132 30.45 95.066052167037 28 1 17 223 2275
vector 402146  Network.dyn_peer[73]  lookupTimeSig:vector  ETV
402146	239941 882 3888 74132 30.45 95.066052167037 28 0.2 1.8 25 27.24
vector 402159  Network.dyn_peer[79]  lookupHopsSig:vector  ETV
402159	248263 283 3964 55730 30.6 82.065803985049 10 1 18 69 749
vector 402158  Network.dyn_peer[79]  lookupTimeSig:vector  ETV
402158	247964 299 3964 55730 30.6 82.065803985049 10 0.2 1.9 7.8 8.84
vector 402163  Network.dyn_peer[81]  lookupHopsSig:vector  ETV
402163	250501 579 3990 111090 30.65 118.242140289527 19 3 26 182 2328
vector 402162  Network.dyn_peer[81]  lookupTimeSig:vector  ETV
402162	249894 607 3990 111090 30.65 118.242140289527 19 0.4 2.7 20 27.02
vector 402151  Network.dyn_peer[75]  lookupHopsSig:vector  ETV
402151	243585 391 4019 120562 30.7 124.039174228836 13 2 26 155 2375
vector 402150  Network.dyn_peer[75]  lookupTimeSig:vector  ETV
402150	243180 405 4019 120562 30.7 124.039174228836 13 0.3 2.7 16.7 26.73
vector 402167  Network.dyn_peer[83]  lookupHopsSig:vector  ETV
402167	253449 292 4072 115728 30.8 121.094209089091 10 3 31 114 2380
vector 402166  Network.dyn_peer[83]  lookupTimeSig:vector  ETV
402166	253142 307 4072 115728 30.8 121.094209089091 10 0.3 3.2 12.3 26.11
vector 402165  Network.dyn_peer[82]  lookupHopsSig:vector  ETV
402165	252140 1002 4099 94594 30.875 108.262648282731 33 1 14 196 1618
vector 402164  Network.dyn_peer[82]  lookupTimeSig:vector  ETV
402164	251080 1060 4099 94594 30.875 108.262648282731 33 0.2 1.5 22.8 20.32
vector 402169  Network.dyn_peer[84]  lookupHopsSig:vector  ETV
402169	254311 549 4224 79947 31.125 98.896747677567 18 3 27 252 4414
vector 402168  Network.dyn_peer[84]  lookupTimeSig:vector  ETV
402168	253741 570 4224 79947 31.125 98.896747677567 18 0.4 2.8 26.9 49.25
vector 402173  Network.dyn_peer[86]  lookupHopsSig:vector  ETV
402173	256940 567 4253 58441 31.175 83.974072485471 19 1 29 170 2624
vector 402172  Network.dyn_peer[86]  lookupTimeSig:vector  ETV
402172	256344 596 4253 58441 31.175 83.974072485471 19 0.2 3 18.8 29.76
vector 402175  Network.dyn_peer[87]  lookupHopsSig:vector  ETV
402175	257744 223 4365 49076 31.4 77.416127877813 8 4 24 69 939
vector 402174  Network.dyn_peer[87]  lookupTimeSig:vector  ETV
402174	257507 237 4365 49076 31.4 77.416127877813 8 0.4 2.5 7.6 10.76
vector 402179  Network.dyn_peer[89]  lookupHopsSig:vector  ETV
402179	259392 679 4394 161843 31.45 145.490566401524 22 2 33 247 4171
vector 402178  Network.dyn_peer[89]  lookupTimeSig:vector  ETV
402178	258684 708 4394 161843 31.45 145.490566401524 22 0.2 3.4 26.8 46.82
vector 402171  Network.dyn_peer[85]  lookupHopsSig:vector  ETV
402171	255620 724 4551 74728 31.75 95.459505710348 24 1 33 220 3336
vector 402170  Network.dyn_peer[85]  lookupTimeSig:vector  ETV
402170	254860 760 4551 74728 31.75 95.459505710348 24 0.2 3.4 24.3 37.79
vector 402185  Network.dyn_peer[92]  lookupHopsSig:vector  ETV
402185	261622 412 4638 50860 31.925 78.742711523484 14 1 18 102 1094
vector 402184  Network.dyn_peer[92]  lookupTimeSig:vector  ETV
402184	261188 434 4638 50860 31.925 78.742711523484 14 0.2 1.9 11.5 13.05
vector 402177  Network.dyn_peer[88]  lookupHopsSig:vector  ETV
402177	258333 351 4688 76438 32.025 96.560794270275 12 2 19 92 944
vector 402176  Network.dyn_peer[88]  lookupTimeSig:vector  ETV
402176	257967 366 4688 76438 32.025 96.560794270275 12 0.3 2 10.3 11.21
vector 402189  Network.dyn_peer[94]  lookupHopsSig:vector  ETV
402189	263552 1016 4773 170411 32.175 150.852805255756 33 3 19 268 2746
vector 402188  Network.dyn_peer[94]  lookupTimeSig:vector  ETV
402188	262488 1064 4773 170411 32.175 150.852805255756 33 0.3 2 30 33.08
vector 402181  Network.dyn_peer[90]  lookupHopsSig:vector  ETV
402181	260474 386 4830 17307 32.275 48.668606563478 13 4 15 121 1327
vector 402180  Network.dyn_peer[90]  lookupTimeSig:vector  ETV
402180	260071 403 4830 17307 32.275 48.668606563478 13 0.5 1.6 13.3 15.63
vector 402183  Network.dyn_peer[91]  lookupHopsSig:vector  ETV
402183	261030 158 4846 6845 32.3 35.314815028387 6 2 8 33 207
vector 402182  Network.dyn_peer[91]  lookupTimeSig:vector  ETV
402182	260860 170 4846 6845 32.3 35.314815028387 6 0.3 0.8 3.8 2.62
vector 402191  Network.dyn_peer[95]  lookupHopsSig:vector  ETV
402191	264674 99 4850 6469 32.3 34.808021781649 4 3 14 25 237
vector 402190  Network.dyn_peer[95]  lookupTimeSig:vector  ETV
402190	264568 106 4850 6469 32.3 34.808021781649 4 0.3 1.5 2.8 2.84
vector 402187  Network.dyn_peer[93]  lookupHopsSig:vector  ETV
402187	262268 220 4934 9019 32.45 38.386329725307 8 2 15 59 539
vector 402186  Network.dyn_peer[93]  lookupTimeSig:vector  ETV
402186	262034 234 4934 9019 32.45 38.386329725307 8 0.3 1.6 6.6 6.5
vector 402193  Network.dyn_peer[96]  lookupHopsSig:vector  ETV
402193	265417 613 5040 165309 32.625 147.285733030418 20 1 23 200 2842
vector 402192  Network.dyn_peer[96]  lookupTimeSig:vector  ETV
402192	264773 644 5040 165309 32.625 147.285733030418 20 0.2 2.4 21.9 32.51
vector 402201  Network.dyn_peer[100]  lookupHopsSig:vector  ETV
402201	271343 328 5165 90141 32.825 105.428435873511 11 2 13 84 772
vector 402200  Network.dyn_peer[100]  lookupTimeSig:vector  ETV
402200	270998 345 5165 90141 32.825 105.428435873511 11 0.2 1.4 9.4 9.46
vector 402197  Network.dyn_peer[98]  lookupHopsSig:vector  ETV
402197	268973 821 5259 113896 32.975 119.940169528283 27 1 24 229 2713
vector 402196  Network.dyn_peer[98]  lookupTimeSig:vector  ETV
402196	268111 862 5259 113896 32.975 119.940169528283 27 0.2 2.5 25.5 31.85
vector 402195  Network.dyn_peer[97]  lookupHopsSig:vector  ETV
402195	267088 1023 5311 176561 33.05 166.923836024914 32 1 36 416 7432
vector 402194  Network.dyn_peer[97]  lookupTimeSig:vector  ETV
402194	266030 1058 5311 176561 33.05 166.923836024914 32 0.2 3.7 44.7 82.79
vector 402205  Network.dyn_peer[102]  lookupHopsSig:vector  ETV
402205	274594 634 5330 95318 33.075 108.734886797049 21 2 18 161 1617
vector 402204  Network.dyn_peer[102]  lookupTimeSig:vector  ETV
402204	273929 665 5330 95318 33.075 108.734886797049 21 0.2 1.9 18.1 19.55
vector 402203  Network.dyn_peer[101]  lookupHopsSig:vector  ETV
402203	272824 1105 5625 165439 33.55 147.364481670922 35 2 33 392 6466
vector 402202  Network.dyn_peer[101]  lookupTimeSig:vector  ETV
402202	271671 1153 5625 165439 33.55 147.364481670922 35 0.3 3.4 42.6 72.68
vector 402207  Network.dyn_peer[103]  lookupHopsSig:vector  ETV
402207	275366 128 5659 7036 33.6 35.604833532805 5 2 6 22 110
vector 402206  Network.dyn_peer[103]  lookupTimeSig:vector  ETV
402206	275228 138 5659 7036 33.6 35.604833532805 5 0.3 0.7 2.6 1.46
vector 402199  Network.dyn_peer[99]  lookupHopsSig:vector  ETV
402199	270410 588 5728 167678 33.7 148.751390417163 19 1 24 178 2380
vector 402198  Network.dyn_peer[99]  lookupTimeSig:vector  ETV
402198	269794 616 5728 167678 33.7 148.751390417163 19 0.2 2.5 19.6 27.3
vector 402215  Network.dyn_peer[107]  lookupHopsSig:vector  ETV
402215	280694 999 5798 153614 33.8 141.475859848484 32 2 25 330 4568
vector 402214  Network.dyn_peer[107]  lookupTimeSig:vector  ETV
402214	279653 1041 5798 153614 33.8 141.475859848484 32 0.3 2.6 36.1 52.53
vector 402213  Network.dyn_peer[106]  lookupHopsSig:vector  ETV
402213	278635 1018 5905 109083 33.975 117.090515035913 33 2 24 326 3932
vector 402212  Network.dyn_peer[106]  lookupTimeSig:vector  ETV
402212	277569 1066 5905 109083 33.975 117.090515035913 33 0.3 2.5 35.8 46.04
vector 402209  Network.dyn_peer[104]  lookupHopsSig:vector  ETV
402209	275769 263 5946 105977 34.025 115.364290585637 9 4 23 96 1302
vector 402208  Network.dyn_peer[104]  lookupTimeSig:vector  ETV
402208	275494 275 5946 105977 34.025 115.364290585637 9 0.5 2.4 10.4 14.84
vector 402211  Network.dyn_peer[105]  lookupHopsSig:vector  ETV
402211	276815 754 6099 120475 34.25 123.985059791262 24 3 19 241 2807
vector 402210  Network.dyn_peer[105]  lookupTimeSig:vector  ETV
402210	276032 783 6099 120475 34.25 123.985059791262 24 0.4 2 26.4 32.92
vector 402219  Network.dyn_peer[109]  lookupHopsSig:vector  ETV
402219	282935 550 6164 145540 34.35 137.554074060461 18 1 27 237 4033
vector 402218  Network.dyn_peer[109]  lookupTimeSig:vector  ETV
402218	282361 574 6164 145540 34.35 137.554074060461 18 0.2 2.8 25.4 45.12
vector 402223  Network.dyn_peer[111]  lookupHopsSig:vector  ETV
402223	285982 444 6197 63936 34.4 87.937518136159 15 2 18 123 1425
vector 402222  Network.dyn_peer[111]  lookupTimeSig:vector  ETV
402222	285514 468 6197 63936 34.4 87.937518136159 15 0.3 1.9 13.7 16.77