version 2
run Stability-98-20130521-22:30:11-23591
attr configname Stability
attr datetime 20130521-22:30:11
attr experiment Stability
attr inifile omnetpp.ini
attr iterationvars $0=1
attr iterationvars2 "$0=1, $repetition=8"
attr measurement $0=1
attr network Network
attr processid 23591
attr repetition 8
attr replication #8
attr resultdir results
attr runnumber 98
attr seedset 98

vector 196001  Network.dyn_peer[0]  lookupHopsSig:vector  ETV
vector 196000  Network.dyn_peer[0]  lookupTimeSig:vector  ETV
vector 196003  Network.dyn_peer[1]  lookupHopsSig:vector  ETV
vector 196002  Network.dyn_peer[1]  lookupTimeSig:vector  ETV
vector 196005  Network.dyn_peer[2]  lookupHopsSig:vector  ETV
vector 196004  Network.dyn_peer[2]  lookupTimeSig:vector  ETV
vector 196007  Network.dyn_peer[3]  lookupHopsSig:vector  ETV
vector 196006  Network.dyn_peer[3]  lookupTimeSig:vector  ETV
vector 196009  Network.dyn_peer[4]  lookupHopsSig:vector  ETV
vector 196008  Network.dyn_peer[4]  lookupTimeSig:vector  ETV
vector 196011  Network.dyn_peer[5]  lookupHopsSig:vector  ETV
vector 196010  Network.dyn_peer[5]  lookupTimeSig:vector  ETV
vector 196013  Network.dyn_peer[6]  lookupHopsSig:vector  ETV
vector 196012  Network.dyn_peer[6]  lookupTimeSig:vector  ETV
vector 196015  Network.dyn_peer[7]  lookupHopsSig:vector  ETV
vector 196014  Network.dyn_peer[7]  lookupTimeSig:vector  ETV
vector 196017  Network.dyn_peer[8]  lookupHopsSig:vector  ETV
vector 196016  Network.dyn_peer[8]  lookupTimeSig:vector  ETV
vector 196019  Network.dyn_peer[9]  lookupHopsSig:vector  ETV
vector 196018  Network.dyn_peer[9]  lookupTimeSig:vector  ETV
vector 196021  Network.dyn_peer[10]  lookupHopsSig:vector  ETV
vector 196020  Network.dyn_peer[10]  lookupTimeSig:vector  ETV
vector 196023  Network.dyn_peer[11]  lookupHopsSig:vector  ETV
vector 196022  Network.dyn_peer[11]  lookupTimeSig:vector  ETV
vector 196025  Network.dyn_peer[12]  lookupHopsSig:vector  ETV
vector 196024  Network.dyn_peer[12]  lookupTimeSig:vector  ETV
vector 196027  Network.dyn_peer[13]  lookupHopsSig:vector  ETV
vector 196026  Network.dyn_peer[13]  lookupTimeSig:vector  ETV
vector 196029  Network.dyn_peer[14]  lookupHopsSig:vector  ETV
vector 196028  Network.dyn_peer[14]  lookupTimeSig:vector  ETV
vector 196031  Network.dyn_peer[15]  lookupHopsSig:vector  ETV
vector 196030  Network.dyn_peer[15]  lookupTimeSig:vector  ETV
vector 196033  Network.dyn_peer[16]  lookupHopsSig:vector  ETV
vector 196032  Network.dyn_peer[16]  lookupTimeSig:vector  ETV
vector 196035  Network.dyn_peer[17]  lookupHopsSig:vector  ETV
vector 196034  Network.dyn_peer[17]  lookupTimeSig:vector  ETV
vector 196037  Network.dyn_peer[18]  lookupHopsSig:vector  ETV
vector 196036  Network.dyn_peer[18]  lookupTimeSig:vector  ETV
vector 196039  Network.dyn_peer[19]  lookupHopsSig:vector  ETV
vector 196038  Network.dyn_peer[19]  lookupTimeSig:vector  ETV
vector 196041  Network.dyn_peer[20]  lookupHopsSig:vector  ETV
vector 196040  Network.dyn_peer[20]  lookupTimeSig:vector  ETV
vector 196043  Network.dyn_peer[21]  lookupHopsSig:vector  ETV
vector 196042  Network.dyn_peer[21]  lookupTimeSig:vector  ETV
vector 196045  Network.dyn_peer[22]  lookupHopsSig:vector  ETV
vector 196044  Network.dyn_peer[22]  lookupTimeSig:vector  ETV
vector 196047  Network.dyn_peer[23]  lookupHopsSig:vector  ETV
vector 196046  Network.dyn_peer[23]  lookupTimeSig:vector  ETV
vector 196049  Network.dyn_peer[24]  lookupHopsSig:vector  ETV
vector 196048  Network.dyn_peer[24]  lookupTimeSig:vector  ETV
vector 196051  Network.dyn_peer[25]  lookupHopsSig:vector  ETV
vector 196050  Network.dyn_peer[25]  lookupTimeSig:vector  ETV
vector 196053  Network.dyn_peer[26]  lookupHopsSig:vector  ETV
vector 196052  Network.dyn_peer[26]  lookupTimeSig:vector  ETV
vector 196055  Network.dyn_peer[27]  lookupHopsSig:vector  ETV
vector 196054  Network.dyn_peer[27]  lookupTimeSig:vector  ETV
vector 196057  Network.dyn_peer[28]  lookupHopsSig:vector  ETV
vector 196056  Network.dyn_peer[28]  lookupTimeSig:vector  ETV
vector 196059  Network.dyn_peer[29]  lookupHopsSig:vector  ETV
vector 196058  Network.dyn_peer[29]  lookupTimeSig:vector  ETV
vector 196061  Network.dyn_peer[30]  lookupHopsSig:vector  ETV
vector 196060  Network.dyn_peer[30]  lookupTimeSig:vector  ETV
vector 196063  Network.dyn_peer[31]  lookupHopsSig:vector  ETV
vector 196062  Network.dyn_peer[31]  lookupTimeSig:vector  ETV
vector 196065  Network.dyn_peer[32]  lookupHopsSig:vector  ETV
vector 196064  Network.dyn_peer[32]  lookupTimeSig:vector  ETV
vector 196067  Network.dyn_peer[33]  lookupHopsSig:vector  ETV
vector 196066  Network.dyn_peer[33]  lookupTimeSig:vector  ETV
vector 196069  Network.dyn_peer[34]  lookupHopsSig:vector  ETV
vector 196068  Network.dyn_peer[34]  lookupTimeSig:vector  ETV
vector 196071  Network.dyn_peer[35]  lookupHopsSig:vector  ETV
vector 196070  Network.dyn_peer[35]  lookupTimeSig:vector  ETV
vector 196073  Network.dyn_peer[36]  lookupHopsSig:vector  ETV
vector 196072  Network.dyn_peer[36]  lookupTimeSig:vector  ETV
vector 196075  Network.dyn_peer[37]  lookupHopsSig:vector  ETV
vector 196074  Network.dyn_peer[37]  lookupTimeSig:vector  ETV
vector 196077  Network.dyn_peer[38]  lookupHopsSig:vector  ETV
vector 196076  Network.dyn_peer[38]  lookupTimeSig:vector  ETV
vector 196079  Network.dyn_peer[39]  lookupHopsSig:vector  ETV
vector 196078  Network.dyn_peer[39]  lookupTimeSig:vector  ETV
vector 196081  Network.dyn_peer[40]  lookupHopsSig:vector  ETV
vector 196080  Network.dyn_peer[40]  lookupTimeSig:vector  ETV
vector 196083  Network.dyn_peer[41]  lookupHopsSig:vector  ETV
vector 196082  Network.dyn_peer[41]  lookupTimeSig:vector  ETV
vector 196085  Network.dyn_peer[42]  lookupHopsSig:vector  ETV
vector 196084  Network.dyn_peer[42]  lookupTimeSig:vector  ETV
vector 196087  Network.dyn_peer[43]  lookupHopsSig:vector  ETV
vector 196086  Network.dyn_peer[43]  lookupTimeSig:vector  ETV
vector 196089  Network.dyn_peer[44]  lookupHopsSig:vector  ETV
vector 196088  Network.dyn_peer[44]  lookupTimeSig:vector  ETV
vector 196091  Network.dyn_peer[45]  lookupHopsSig:vector  ETV
vector 196090  Network.dyn_peer[45]  lookupTimeSig:vector  ETV
vector 196093  Network.dyn_peer[46]  lookupHopsSig:vector  ETV
vector 196092  Network.dyn_peer[46]  lookupTimeSig:vector  ETV
vector 196095  Network.dyn_peer[47]  lookupHopsSig:vector  ETV
vector 196094  Network.dyn_peer[47]  lookupTimeSig:vector  ETV
vector 196097  Network.dyn_peer[48]  lookupHopsSig:vector  ETV
vector 196096  Network.dyn_peer[48]  lookupTimeSig:vector  ETV
vector 196099  Network.dyn_peer[49]  lookupHopsSig:vector  ETV
vector 196098  Network.dyn_peer[49]  lookupTimeSig:vector  ETV
vector 196101  Network.dyn_peer[50]  lookupHopsSig:vector  ETV
vector 196100  Network.dyn_peer[50]  lookupTimeSig:vector  ETV
vector 196103  Network.dyn_peer[51]  lookupHopsSig:vector  ETV
vector 196102  Network.dyn_peer[51]  lookupTimeSig:vector  ETV
vector 196105  Network.dyn_peer[52]  lookupHopsSig:vector  ETV
vector 196104  Network.dyn_peer[52]  lookupTimeSig:vector  ETV
vector 196107  Network.dyn_peer[53]  lookupHopsSig:vector  ETV
vector 196106  Network.dyn_peer[53]  lookupTimeSig:vector  ETV
vector 196109  Network.dyn_peer[54]  lookupHopsSig:vector  ETV
vector 196108  Network.dyn_peer[54]  lookupTimeSig:vector  ETV
vector 196111  Network.dyn_peer[55]  lookupHopsSig:vector  ETV
vector 196110  Network.dyn_peer[55]  lookupTimeSig:vector  ETV
vector 196113  Network.dyn_peer[56]  lookupHopsSig:vector  ETV
vector 196112  Network.dyn_peer[56]  lookupTimeSig:vector  ETV
vector 196115  Network.dyn_peer[57]  lookupHopsSig:vector  ETV
vector 196114  Network.dyn_peer[57]  lookupTimeSig:vector  ETV
vector 196117  Network.dyn_peer[58]  lookupHopsSig:vector  ETV
vector 196116  Network.dyn_peer[58]  lookupTimeSig:vector  ETV
vector 196119  Network.dyn_peer[59]  lookupHopsSig:vector  ETV
vector 196118  Network.dyn_peer[59]  lookupTimeSig:vector  ETV
vector 196121  Network.dyn_peer[60]  lookupHopsSig:vector  ETV
vector 196120  Network.dyn_peer[60]  lookupTimeSig:vector  ETV
vector 196123  Network.dyn_peer[61]  lookupHopsSig:vector  ETV
vector 196122  Network.dyn_peer[61]  lookupTimeSig:vector  ETV
vector 196125  Network.dyn_peer[62]  lookupHopsSig:vector  ETV
vector 196124  Network.dyn_peer[62]  lookupTimeSig:vector  ETV
vector 196127  Network.dyn_peer[63]  lookupHopsSig:vector  ETV
vector 196126  Network.dyn_peer[63]  lookupTimeSig:vector  ETV
vector 196129  Network.dyn_peer[64]  lookupHopsSig:vector  ETV
vector 196128  Network.dyn_peer[64]  lookupTimeSig:vector  ETV
vector 196131  Network.dyn_peer[65]  lookupHopsSig:vector  ETV
vector 196130  Network.dyn_peer[65]  lookupTimeSig:vector  ETV
vector 196133  Network.dyn_peer[66]  lookupHopsSig:vector  ETV
vector 196132  Network.dyn_peer[66]  lookupTimeSig:vector  ETV
vector 196135  Network.dyn_peer[67]  lookupHopsSig:vector  ETV
vector 196134  Network.dyn_peer[67]  lookupTimeSig:vector  ETV
vector 196137  Network.dyn_peer[68]  lookupHopsSig:vector  ETV
vector 196136  Network.dyn_peer[68]  lookupTimeSig:vector  ETV
vector 196139  Network.dyn_peer[69]  lookupHopsSig:vector  ETV
vector 196138  Network.dyn_peer[69]  lookupTimeSig:vector  ETV
vector 196141  Network.dyn_peer[70]  lookupHopsSig:vector  ETV
vector 196140  Network.dyn_peer[70]  lookupTimeSig:vector  ETV
vector 196143  Network.dyn_peer[71]  lookupHopsSig:vector  ETV
vector 196142  Network.dyn_peer[71]  lookupTimeSig:vector  ETV
vector 196145  Network.dyn_peer[72]  lookupHopsSig:vector  ETV
vector 196144  Network.dyn_peer[72]  lookupTimeSig:vector  ETV
vector 196147  Network.dyn_peer[73]  lookupHopsSig:vector  ETV
vector 196146  Network.dyn_peer[73]  lookupTimeSig:vector  ETV
vector 196149  Network.dyn_peer[74]  lookupHopsSig:vector  ETV
vector 196148  Network.dyn_peer[74]  lookupTimeSig:vector  ETV
vector 196151  Network.dyn_peer[75]  lookupHopsSig:vector  ETV
vector 196150  Network.dyn_peer[75]  lookupTimeSig:vector  ETV
vector 196153  Network.dyn_peer[76]  lookupHopsSig:vector  ETV
vector 196152  Network.dyn_peer[76]  lookupTimeSig:vector  ETV
vector 196155  Network.dyn_peer[77]  lookupHopsSig:vector  ETV
vector 196154  Network.dyn_peer[77]  lookupTimeSig:vector  ETV
vector 196157  Network.dyn_peer[78]  lookupHopsSig:vector  ETV
vector 196156  Network.dyn_peer[78]  lookupTimeSig:vector  ETV
vector 196159  Network.dyn_peer[79]  lookupHopsSig:vector  ETV
vector 196158  Network.dyn_peer[79]  lookupTimeSig:vector  ETV
vector 196161  Network.dyn_peer[80]  lookupHopsSig:vector  ETV
vector 196160  Network.dyn_peer[80]  lookupTimeSig:vector  ETV
vector 196163  Network.dyn_peer[81]  lookupHopsSig:vector  ETV
vector 196162  Network.dyn_peer[81]  lookupTimeSig:vector  ETV
vector 196165  Network.dyn_peer[82]  lookupHopsSig:vector  ETV
vector 196164  Network.dyn_peer[82]  lookupTimeSig:vector  ETV
vector 196167  Network.dyn_peer[83]  lookupHopsSig:vector  ETV
vector 196166  Network.dyn_peer[83]  lookupTimeSig:vector  ETV
vector 196169  Network.dyn_peer[84]  lookupHopsSig:vector  ETV
vector 196168  Network.dyn_peer[84]  lookupTimeSig:vector  ETV
vector 196171  Network.dyn_peer[85]  lookupHopsSig:vector  ETV
vector 196170  Network.dyn_peer[85]  lookupTimeSig:vector  ETV
vector 196173  Network.dyn_peer[86]  lookupHopsSig:vector  ETV
vector 196172  Network.dyn_peer[86]  lookupTimeSig:vector  ETV
vector 196175  Network.dyn_peer[87]  lookupHopsSig:vector  ETV
vector 196174  Network.dyn_peer[87]  lookupTimeSig:vector  ETV
vector 196177  Network.dyn_peer[88]  lookupHopsSig:vector  ETV
vector 196176  Network.dyn_peer[88]  lookupTimeSig:vector  ETV
vector 196179  Network.dyn_peer[89]  lookupHopsSig:vector  ETV
vector 196178  Network.dyn_peer[89]  lookupTimeSig:vector  ETV
vector 196181  Network.dyn_peer[90]  lookupHopsSig:vector  ETV
vector 196180  Network.dyn_peer[90]  lookupTimeSig:vector  ETV
vector 196183  Network.dyn_peer[91]  lookupHopsSig:vector  ETV
vector 196182  Network.dyn_peer[91]  lookupTimeSig:vector  ETV
vector 196185  Network.dyn_peer[92]  lookupHopsSig:vector  ETV
vector 196184  Network.dyn_peer[92]  lookupTimeSig:vector  ETV
vector 196187  Network.dyn_peer[93]  lookupHopsSig:vector  ETV
vector 196186  Network.dyn_peer[93]  lookupTimeSig:vector  ETV
vector 196189  Network.dyn_peer[94]  lookupHopsSig:vector  ETV
vector 196188  Network.dyn_peer[94]  lookupTimeSig:vector  ETV
vector 196191  Network.dyn_peer[95]  lookupHopsSig:vector  ETV
vector 196190  Network.dyn_peer[95]  lookupTimeSig:vector  ETV
vector 196193  Network.dyn_peer[96]  lookupHopsSig:vector  ETV
vector 196192  Network.dyn_peer[96]  lookupTimeSig:vector  ETV
vector 196195  Network.dyn_peer[97]  lookupHopsSig:vector  ETV
vector 196194  Network.dyn_peer[97]  lookupTimeSig:vector  ETV
vector 196197  Network.dyn_peer[98]  lookupHopsSig:vector  ETV
vector 196196  Network.dyn_peer[98]  lookupTimeSig:vector  ETV
vector 196199  Network.dyn_peer[99]  lookupHopsSig:vector  ETV
vector 196198  Network.dyn_peer[99]  lookupTimeSig:vector  ETV
vector 196201  Network.dyn_peer[100]  lookupHopsSig:vector  ETV
vector 196200  Network.dyn_peer[100]  lookupTimeSig:vector  ETV
vector 196203  Network.dyn_peer[101]  lookupHopsSig:vector  ETV
vector 196202  Network.dyn_peer[101]  lookupTimeSig:vector  ETV
vector 196207  Network.dyn_peer[103]  lookupHopsSig:vector  ETV
vector 196206  Network.dyn_peer[103]  lookupTimeSig:vector  ETV
vector 196205  Network.dyn_peer[102]  lookupHopsSig:vector  ETV
vector 196204  Network.dyn_peer[102]  lookupTimeSig:vector  ETV
vector 196209  Network.dyn_peer[104]  lookupHopsSig:vector  ETV
vector 196208  Network.dyn_peer[104]  lookupTimeSig:vector  ETV
vector 196211  Network.dyn_peer[105]  lookupHopsSig:vector  ETV
vector 196210  Network.dyn_peer[105]  lookupTimeSig:vector  ETV
vector 196213  Network.dyn_peer[106]  lookupHopsSig:vector  ETV
vector 196212  Network.dyn_peer[106]  lookupTimeSig:vector  ETV
vector 196215  Network.dyn_peer[107]  lookupHopsSig:vector  ETV
vector 196214  Network.dyn_peer[107]  lookupTimeSig:vector  ETV
vector 196217  Network.dyn_peer[108]  lookupHopsSig:vector  ETV
vector 196216  Network.dyn_peer[108]  lookupTimeSig:vector  ETV
vector 196219  Network.dyn_peer[109]  lookupHopsSig:vector  ETV
vector 196218  Network.dyn_peer[109]  lookupTimeSig:vector  ETV
vector 196221  Network.dyn_peer[110]  lookupHopsSig:vector  ETV
vector 196220  Network.dyn_peer[110]  lookupTimeSig:vector  ETV
vector 196223  Network.dyn_peer[111]  lookupHopsSig:vector  ETV
vector 196222  Network.dyn_peer[111]  lookupTimeSig:vector  ETV
vector 196225  Network.dyn_peer[112]  lookupHopsSig:vector  ETV
vector 196224  Network.dyn_peer[112]  lookupTimeSig:vector  ETV
vector 196227  Network.dyn_peer[113]  lookupHopsSig:vector  ETV
vector 196226  Network.dyn_peer[113]  lookupTimeSig:vector  ETV
vector 196229  Network.dyn_peer[114]  lookupHopsSig:vector  ETV
vector 196228  Network.dyn_peer[114]  lookupTimeSig:vector  ETV
vector 196231  Network.dyn_peer[115]  lookupHopsSig:vector  ETV
vector 196230  Network.dyn_peer[115]  lookupTimeSig:vector  ETV
vector 196233  Network.dyn_peer[116]  lookupHopsSig:vector  ETV
vector 196232  Network.dyn_peer[116]  lookupTimeSig:vector  ETV
vector 196235  Network.dyn_peer[117]  lookupHopsSig:vector  ETV
vector 196234  Network.dyn_peer[117]  lookupTimeSig:vector  ETV
vector 196237  Network.dyn_peer[118]  lookupHopsSig:vector  ETV
vector 196236  Network.dyn_peer[118]  lookupTimeSig:vector  ETV
vector 196239  Network.dyn_peer[119]  lookupHopsSig:vector  ETV
vector 196238  Network.dyn_peer[119]  lookupTimeSig:vector  ETV
vector 196241  Network.dyn_peer[120]  lookupHopsSig:vector  ETV
vector 196240  Network.dyn_peer[120]  lookupTimeSig:vector  ETV
vector 196243  Network.dyn_peer[121]  lookupHopsSig:vector  ETV
vector 196242  Network.dyn_peer[121]  lookupTimeSig:vector  ETV
vector 196245  Network.dyn_peer[122]  lookupHopsSig:vector  ETV
vector 196244  Network.dyn_peer[122]  lookupTimeSig:vector  ETV
vector 196247  Network.dyn_peer[123]  lookupHopsSig:vector  ETV
vector 196246  Network.dyn_peer[123]  lookupTimeSig:vector  ETV
vector 196249  Network.dyn_peer[124]  lookupHopsSig:vector  ETV
vector 196248  Network.dyn_peer[124]  lookupTimeSig:vector  ETV
vector 196251  Network.dyn_peer[125]  lookupHopsSig:vector  ETV
vector 196250  Network.dyn_peer[125]  lookupTimeSig:vector  ETV
vector 196253  Network.dyn_peer[126]  lookupHopsSig:vector  ETV
vector 196252  Network.dyn_peer[126]  lookupTimeSig:vector  ETV
vector 196255  Network.dyn_peer[127]  lookupHopsSig:vector  ETV
vector 196254  Network.dyn_peer[127]  lookupTimeSig:vector  ETV
vector 196257  Network.dyn_peer[128]  lookupHopsSig:vector  ETV
vector 196256  Network.dyn_peer[128]  lookupTimeSig:vector  ETV
vector 196259  Network.dyn_peer[129]  lookupHopsSig:vector  ETV
vector 196258  Network.dyn_peer[129]  lookupTimeSig:vector  ETV
vector 196261  Network.dyn_peer[130]  lookupHopsSig:vector  ETV
vector 196260  Network.dyn_peer[130]  lookupTimeSig:vector  ETV
vector 196265  Network.dyn_peer[132]  lookupHopsSig:vector  ETV
vector 196264  Network.dyn_peer[132]  lookupTimeSig:vector  ETV
vector 196263  Network.dyn_peer[131]  lookupHopsSig:vector  ETV
vector 196262  Network.dyn_peer[131]  lookupTimeSig:vector  ETV
vector 196267  Network.dyn_peer[133]  lookupHopsSig:vector  ETV
vector 196266  Network.dyn_peer[133]  lookupTimeSig:vector  ETV
vector 196269  Network.dyn_peer[134]  lookupHopsSig:vector  ETV
vector 196268  Network.dyn_peer[134]  lookupTimeSig:vector  ETV
vector 196271  Network.dyn_peer[135]  lookupHopsSig:vector  ETV
vector 196270  Network.dyn_peer[135]  lookupTimeSig:vector  ETV
vector 196273  Network.dyn_peer[136]  lookupHopsSig:vector  ETV
vector 196272  Network.dyn_peer[136]  lookupTimeSig:vector  ETV
vector 196275  Network.dyn_peer[137]  lookupHopsSig:vector  ETV
vector 196274  Network.dyn_peer[137]  lookupTimeSig:vector  ETV
vector 196277  Network.dyn_peer[138]  lookupHopsSig:vector  ETV
vector 196276  Network.dyn_peer[138]  lookupTimeSig:vector  ETV
vector 196279  Network.dyn_peer[139]  lookupHopsSig:vector  ETV
vector 196278  Network.dyn_peer[139]  lookupTimeSig:vector  ETV
vector 196281  Network.dyn_peer[140]  lookupHopsSig:vector  ETV
vector 196280  Network.dyn_peer[140]  lookupTimeSig:vector  ETV
vector 196283  Network.dyn_peer[141]  lookupHopsSig:vector  ETV
vector 196282  Network.dyn_peer[141]  lookupTimeSig:vector  ETV
vector 196287  Network.dyn_peer[143]  lookupHopsSig:vector  ETV
vector 196286  Network.dyn_peer[143]  lookupTimeSig:vector  ETV
vector 196285  Network.dyn_peer[142]  lookupHopsSig:vector  ETV
vector 196284  Network.dyn_peer[142]  lookupTimeSig:vector  ETV
vector 196289  Network.dyn_peer[144]  lookupHopsSig:vector  ETV
vector 196288  Network.dyn_peer[144]  lookupTimeSig:vector  ETV
vector 196291  Network.dyn_peer[145]  lookupHopsSig:vector  ETV
vector 196290  Network.dyn_peer[145]  lookupTimeSig:vector  ETV
vector 196293  Network.dyn_peer[146]  lookupHopsSig:vector  ETV
vector 196292  Network.dyn_peer[146]  lookupTimeSig:vector  ETV
vector 196295  Network.dyn_peer[147]  lookupHopsSig:vector  ETV
vector 196294  Network.dyn_peer[147]  lookupTimeSig:vector  ETV
vector 196297  Network.dyn_peer[148]  lookupHopsSig:vector  ETV
vector 196296  Network.dyn_peer[148]  lookupTimeSig:vector  ETV
vector 196299  Network.dyn_peer[149]  lookupHopsSig:vector  ETV
vector 196298  Network.dyn_peer[149]  lookupTimeSig:vector  ETV
vector 196301  Network.dyn_peer[150]  lookupHopsSig:vector  ETV
vector 196300  Network.dyn_peer[150]  lookupTimeSig:vector  ETV
vector 196303  Network.dyn_peer[151]  lookupHopsSig:vector  ETV
vector 196302  Network.dyn_peer[151]  lookupTimeSig:vector  ETV
vector 196305  Network.dyn_peer[152]  lookupHopsSig:vector  ETV
vector 196304  Network.dyn_peer[152]  lookupTimeSig:vector  ETV
vector 196307  Network.dyn_peer[153]  lookupHopsSig:vector  ETV
vector 196306  Network.dyn_peer[153]  lookupTimeSig:vector  ETV
vector 196309  Network.dyn_peer[154]  lookupHopsSig:vector  ETV
vector 196308  Network.dyn_peer[154]  lookupTimeSig:vector  ETV
vector 196311  Network.dyn_peer[155]  lookupHopsSig:vector  ETV
vector 196310  Network.dyn_peer[155]  lookupTimeSig:vector  ETV
vector 196313  Network.dyn_peer[156]  lookupHopsSig:vector  ETV
vector 196312  Network.dyn_peer[156]  lookupTimeSig:vector  ETV
vector 196315  Network.dyn_peer[157]  lookupHopsSig:vector  ETV
vector 196314  Network.dyn_peer[157]  lookupTimeSig:vector  ETV
vector 196317  Network.dyn_peer[158]  lookupHopsSig:vector  ETV
vector 196316  Network.dyn_peer[158]  lookupTimeSig:vector  ETV
vector 196319  Network.dyn_peer[159]  lookupHopsSig:vector  ETV
vector 196318  Network.dyn_peer[159]  lookupTimeSig:vector  ETV
vector 196321  Network.dyn_peer[160]  lookupHopsSig:vector  ETV
vector 196320  Network.dyn_peer[160]  lookupTimeSig:vector  ETV
vector 196323  Network.dyn_peer[161]  lookupHopsSig:vector  ETV
vector 196322  Network.dyn_peer[161]  lookupTimeSig:vector  ETV
vector 196325  Network.dyn_peer[162]  lookupHopsSig:vector  ETV
vector 196324  Network.dyn_peer[162]  lookupTimeSig:vector  ETV
vector 196327  Network.dyn_peer[163]  lookupHopsSig:vector  ETV
vector 196326  Network.dyn_peer[163]  lookupTimeSig:vector  ETV
vector 196329  Network.dyn_peer[164]  lookupHopsSig:vector  ETV
vector 196328  Network.dyn_peer[164]  lookupTimeSig:vector  ETV
vector 196331  Network.dyn_peer[165]  lookupHopsSig:vector  ETV
vector 196330  Network.dyn_peer[165]  lookupTimeSig:vector  ETV
vector 196333  Network.dyn_peer[166]  lookupHopsSig:vector  ETV
vector 196332  Network.dyn_peer[166]  lookupTimeSig:vector  ETV
vector 196335  Network.dyn_peer[167]  lookupHopsSig:vector  ETV
vector 196334  Network.dyn_peer[167]  lookupTimeSig:vector  ETV
vector 196337  Network.dyn_peer[168]  lookupHopsSig:vector  ETV
vector 196336  Network.dyn_peer[168]  lookupTimeSig:vector  ETV
vector 196339  Network.dyn_peer[169]  lookupHopsSig:vector  ETV
vector 196338  Network.dyn_peer[169]  lookupTimeSig:vector  ETV
vector 196341  Network.dyn_peer[170]  lookupHopsSig:vector  ETV
vector 196340  Network.dyn_peer[170]  lookupTimeSig:vector  ETV
vector 196343  Network.dyn_peer[171]  lookupHopsSig:vector  ETV
vector 196342  Network.dyn_peer[171]  lookupTimeSig:vector  ETV
vector 196345  Network.dyn_peer[172]  lookupHopsSig:vector  ETV
vector 196344  Network.dyn_peer[172]  lookupTimeSig:vector  ETV
vector 196347  Network.dyn_peer[173]  lookupHopsSig:vector  ETV
vector 196346  Network.dyn_peer[173]  lookupTimeSig:vector  ETV
vector 196349  Network.dyn_peer[174]  lookupHopsSig:vector  ETV
vector 196348  Network.dyn_peer[174]  lookupTimeSig:vector  ETV
vector 196351  Network.dyn_peer[175]  lookupHopsSig:vector  ETV
vector 196350  Network.dyn_peer[175]  lookupTimeSig:vector  ETV
vector 196353  Network.dyn_peer[176]  lookupHopsSig:vector  ETV
vector 196352  Network.dyn_peer[176]  lookupTimeSig:vector  ETV
vector 196355  Network.dyn_peer[177]  lookupHopsSig:vector  ETV
vector 196354  Network.dyn_peer[177]  lookupTimeSig:vector  ETV
vector 196359  Network.dyn_peer[179]  lookupHopsSig:vector  ETV
vector 196358  Network.dyn_peer[179]  lookupTimeSig:vector  ETV
vector 196357  Network.dyn_peer[178]  lookupHopsSig:vector  ETV
vector 196356  Network.dyn_peer[178]  lookupTimeSig:vector  ETV
vector 196361  Network.dyn_peer[180]  lookupHopsSig:vector  ETV
vector 196360  Network.dyn_peer[180]  lookupTimeSig:vector  ETV
vector 196363  Network.dyn_peer[181]  lookupHopsSig:vector  ETV
vector 196362  Network.dyn_peer[181]  lookupTimeSig:vector  ETV
vector 196365  Network.dyn_peer[182]  lookupHopsSig:vector  ETV
vector 196364  Network.dyn_peer[182]  lookupTimeSig:vector  ETV
vector 196367  Network.dyn_peer[183]  lookupHopsSig:vector  ETV
vector 196366  Network.dyn_peer[183]  lookupTimeSig:vector  ETV
vector 196369  Network.dyn_peer[184]  lookupHopsSig:vector  ETV
vector 196368  Network.dyn_peer[184]  lookupTimeSig:vector  ETV
vector 196371  Network.dyn_peer[185]  lookupHopsSig:vector  ETV
vector 196370  Network.dyn_peer[185]  lookupTimeSig:vector  ETV
vector 196373  Network.dyn_peer[186]  lookupHopsSig:vector  ETV
vector 196372  Network.dyn_peer[186]  lookupTimeSig:vector  ETV
vector 196377  Network.dyn_peer[188]  lookupHopsSig:vector  ETV
vector 196376  Network.dyn_peer[188]  lookupTimeSig:vector  ETV
vector 196375  Network.dyn_peer[187]  lookupHopsSig:vector  ETV
vector 196374  Network.dyn_peer[187]  lookupTimeSig:vector  ETV
vector 196379  Network.dyn_peer[189]  lookupHopsSig:vector  ETV
vector 196378  Network.dyn_peer[189]  lookupTimeSig:vector  ETV
vector 196381  Network.dyn_peer[190]  lookupHopsSig:vector  ETV
vector 196380  Network.dyn_peer[190]  lookupTimeSig:vector  ETV
vector 196383  Network.dyn_peer[191]  lookupHopsSig:vector  ETV
vector 196382  Network.dyn_peer[191]  lookupTimeSig:vector  ETV
vector 196385  Network.dyn_peer[192]  lookupHopsSig:vector  ETV
vector 196384  Network.dyn_peer[192]  lookupTimeSig:vector  ETV
vector 196387  Network.dyn_peer[193]  lookupHopsSig:vector  ETV
vector 196386  Network.dyn_peer[193]  lookupTimeSig:vector  ETV
vector 196389  Network.dyn_peer[194]  lookupHopsSig:vector  ETV
vector 196388  Network.dyn_peer[194]  lookupTimeSig:vector  ETV
vector 196391  Network.dyn_peer[195]  lookupHopsSig:vector  ETV
vector 196390  Network.dyn_peer[195]  lookupTimeSig:vector  ETV
vector 196393  Network.dyn_peer[196]  lookupHopsSig:vector  ETV
vector 196392  Network.dyn_peer[196]  lookupTimeSig:vector  ETV
vector 196395  Network.dyn_peer[197]  lookupHopsSig:vector  ETV
vector 196394  Network.dyn_peer[197]  lookupTimeSig:vector  ETV
vector 196397  Network.dyn_peer[198]  lookupHopsSig:vector  ETV
vector 196396  Network.dyn_peer[198]  lookupTimeSig:vector  ETV
vector 196401  Network.dyn_peer[200]  lookupHopsSig:vector  ETV
vector 196400  Network.dyn_peer[200]  lookupTimeSig:vector  ETV
vector 196399  Network.dyn_peer[199]  lookupHopsSig:vector  ETV
vector 196398  Network.dyn_peer[199]  lookupTimeSig:vector  ETV
vector 196403  Network.dyn_peer[201]  lookupHopsSig:vector  ETV
vector 196402  Network.dyn_peer[201]  lookupTimeSig:vector  ETV
vector 196405  Network.dyn_peer[202]  lookupHopsSig:vector  ETV
vector 196404  Network.dyn_peer[202]  lookupTimeSig:vector  ETV
vector 196407  Network.dyn_peer[203]  lookupHopsSig:vector  ETV
vector 196406  Network.dyn_peer[203]  lookupTimeSig:vector  ETV
vector 196409  Network.dyn_peer[204]  lookupHopsSig:vector  ETV
vector 196408  Network.dyn_peer[204]  lookupTimeSig:vector  ETV
vector 196411  Network.dyn_peer[205]  lookupHopsSig:vector  ETV
vector 196410  Network.dyn_peer[205]  lookupTimeSig:vector  ETV
vector 196413  Network.dyn_peer[206]  lookupHopsSig:vector  ETV
vector 196412  Network.dyn_peer[206]  lookupTimeSig:vector  ETV
vector 196415  Network.dyn_peer[207]  lookupHopsSig:vector  ETV
vector 196414  Network.dyn_peer[207]  lookupTimeSig:vector  ETV
vector 196417  Network.dyn_peer[208]  lookupHopsSig:vector  ETV
vector 196416  Network.dyn_peer[208]  lookupTimeSig:vector  ETV
vector 196419  Network.dyn_peer[209]  lookupHopsSig:vector  ETV
vector 196418  Network.dyn_peer[209]  lookupTimeSig:vector  ETV
vector 196423  Network.dyn_peer[211]  lookupHopsSig:vector  ETV
vector 196422  Network.dyn_peer[211]  lookupTimeSig:vector  ETV
vector 196421  Network.dyn_peer[210]  lookupHopsSig:vector  ETV
vector 196420  Network.dyn_peer[210]  lookupTimeSig:vector  ETV
vector 196425  Network.dyn_peer[212]  lookupHopsSig:vector  ETV
vector 196424  Network.dyn_peer[212]  lookupTimeSig:vector  ETV
vector 196427  Network.dyn_peer[213]  lookupHopsSig:vector  ETV
vector 196426  Network.dyn_peer[213]  lookupTimeSig:vector  ETV
vector 196429  Network.dyn_peer[214]  lookupHopsSig:vector  ETV
vector 196428  Network.dyn_peer[214]  lookupTimeSig:vector  ETV
vector 196431  Network.dyn_peer[215]  lookupHopsSig:vector  ETV
vector 196430  Network.dyn_peer[215]  lookupTimeSig:vector  ETV
vector 196433  Network.dyn_peer[216]  lookupHopsSig:vector  ETV
vector 196432  Network.dyn_peer[216]  lookupTimeSig:vector  ETV
vector 196435  Network.dyn_peer[217]  lookupHopsSig:vector  ETV
vector 196434  Network.dyn_peer[217]  lookupTimeSig:vector  ETV
vector 196437  Network.dyn_peer[218]  lookupHopsSig:vector  ETV
vector 196436  Network.dyn_peer[218]  lookupTimeSig:vector  ETV
vector 196439  Network.dyn_peer[219]  lookupHopsSig:vector  ETV
vector 196438  Network.dyn_peer[219]  lookupTimeSig:vector  ETV
vector 196441  Network.dyn_peer[220]  lookupHopsSig:vector  ETV
vector 196440  Network.dyn_peer[220]  lookupTimeSig:vector  ETV
vector 196443  Network.dyn_peer[221]  lookupHopsSig:vector  ETV
vector 196442  Network.dyn_peer[221]  lookupTimeSig:vector  ETV
vector 196445  Network.dyn_peer[222]  lookupHopsSig:vector  ETV
vector 196444  Network.dyn_peer[222]  lookupTimeSig:vector  ETV
vector 196447  Network.dyn_peer[223]  lookupHopsSig:vector  ETV
vector 196446  Network.dyn_peer[223]  lookupTimeSig:vector  ETV
vector 196449  Network.dyn_peer[224]  lookupHopsSig:vector  ETV
vector 196448  Network.dyn_peer[224]  lookupTimeSig:vector  ETV
vector 196451  Network.dyn_peer[225]  lookupHopsSig:vector  ETV
vector 196450  Network.dyn_peer[225]  lookupTimeSig:vector  ETV
vector 196453  Network.dyn_peer[226]  lookupHopsSig:vector  ETV
vector 196452  Network.dyn_peer[226]  lookupTimeSig:vector  ETV
vector 196455  Network.dyn_peer[227]  lookupHopsSig:vector  ETV
vector 196454  Network.dyn_peer[227]  lookupTimeSig:vector  ETV
vector 196457  Network.dyn_peer[228]  lookupHopsSig:vector  ETV
vector 196456  Network.dyn_peer[228]  lookupTimeSig:vector  ETV
vector 196459  Network.dyn_peer[229]  lookupHopsSig:vector  ETV
vector 196458  Network.dyn_peer[229]  lookupTimeSig:vector  ETV
vector 196461  Network.dyn_peer[230]  lookupHopsSig:vector  ETV
vector 196460  Network.dyn_peer[230]  lookupTimeSig:vector  ETV
vector 196463  Network.dyn_peer[231]  lookupHopsSig:vector  ETV
vector 196462  Network.dyn_peer[231]  lookupTimeSig:vector  ETV
vector 196465  Network.dyn_peer[232]  lookupHopsSig:vector  ETV
vector 196464  Network.dyn_peer[232]  lookupTimeSig:vector  ETV