file 1051990 1369674148                                         
version 2
run Stability-9-20130521-22:20:30-23591
attr configname Stability
attr datetime 20130521-22:20:30
attr experiment Stability
attr inifile omnetpp.ini
attr iterationvars $0=8
attr iterationvars2 "$0=8, $repetition=9"
attr measurement $0=8
attr network Network
attr processid 23591
attr repetition 9
attr replication #9
attr resultdir results
attr runnumber 9
attr seedset 9
vector 18001  Network.dyn_peer[0]  lookupHopsSig:vector  ETV
18001	127896 1656 101 178967 28 7238.038216309413 54 0 25 425 5087
vector 18000  Network.dyn_peer[0]  lookupTimeSig:vector  ETV
18000	126163 1733 101 178967 28 7238.038216309413 54 0 2.6 47.8 59.9
vector 18003  Network.dyn_peer[1]  lookupHopsSig:vector  ETV
18003	131242 1609 162 174336 36.1 7105.927668236687 51 1 50 419 6487
vector 18002  Network.dyn_peer[1]  lookupTimeSig:vector  ETV
18002	129552 1690 162 174336 36.1 7105.927668236687 51 0.1 5.1 46.9 73.73
vector 18005  Network.dyn_peer[2]  lookupHopsSig:vector  ETV
18005	133911 1016 195 116102 44.4 5245.424076040211 33 1 19 283 3315
vector 18004  Network.dyn_peer[2]  lookupTimeSig:vector  ETV
18004	132851 1060 195 116102 44.4 5245.424076040211 33 0.2 2 31.5 39.05
vector 18007  Network.dyn_peer[3]  lookupHopsSig:vector  ETV
18007	135857 887 228 128849 52.2 5678.713067302574 29 1 28 231 3041
vector 18006  Network.dyn_peer[3]  lookupTimeSig:vector  ETV
18006	134927 930 228 128849 52.2 5678.713067302574 29 0.2 2.9 25.9 35.27
vector 18009  Network.dyn_peer[4]  lookupHopsSig:vector  ETV
18009	137996 1191 258 89357 60.3 4312.331971627193 39 1 24 296 3572
vector 18008  Network.dyn_peer[4]  lookupTimeSig:vector  ETV
18008	136744 1252 258 89357 60.3 4312.331971627193 39 0.2 2.5 33.4 41.96
vector 18011  Network.dyn_peer[5]  lookupHopsSig:vector  ETV
18011	140486 1238 310 154688 68.3 6474.645614406908 40 1 25 339 4691
vector 18010  Network.dyn_peer[5]  lookupTimeSig:vector  ETV
18010	139187 1299 310 154688 68.3 6474.645614406908 40 0.2 2.6 37.8 54.02
vector 18013  Network.dyn_peer[6]  lookupHopsSig:vector  ETV
18013	142480 717 352 63855 76.2 3430.637563302526 24 1 23 190 2260
vector 18012  Network.dyn_peer[6]  lookupTimeSig:vector  ETV
18012	141724 756 352 63855 76.2 3430.637563302526 24 0.2 2.4 21.3 26.59
vector 18015  Network.dyn_peer[7]  lookupHopsSig:vector  ETV
18015	145010 1716 408 67269 84.4 3567.521986392487 56 1 20 345 3181
vector 18014  Network.dyn_peer[7]  lookupTimeSig:vector  ETV
18014	143197 1813 408 67269 84.4 3567.521986392487 56 0.2 2.1 40 39.18
vector 18017  Network.dyn_peer[8]  lookupHopsSig:vector  ETV
18017	148010 1207 458 34329 92.3 2112.022075790689 40 1 12 177 1093
vector 18016  Network.dyn_peer[8]  lookupTimeSig:vector  ETV
18016	146726 1284 458 34329 92.3 2112.022075790689 40 0.2 1.3 21.6 14.8
vector 18019  Network.dyn_peer[9]  lookupHopsSig:vector  ETV
18019	150490 1214 505 141801 100.1 6092.230353980581 39 1 29 327 4157
vector 18018  Network.dyn_peer[9]  lookupTimeSig:vector  ETV
18018	149217 1273 505 141801 100.1 6092.230353980581 39 0.1 3 36.5 48.47
vector 18021  Network.dyn_peer[10]  lookupHopsSig:vector  ETV
18021	153064 1300 565 160311 108.2 6667.338746349193 42 1 26 346 4558
vector 18020  Network.dyn_peer[10]  lookupTimeSig:vector  ETV
18020	151704 1360 565 160311 108.2 6667.338746349193 42 0.2 2.7 38.7 52.87
vector 18023  Network.dyn_peer[11]  lookupHopsSig:vector  ETV
18023	155760 1330 615 142453 116.4 6122.53072182501 43 1 30 380 5466
vector 18022  Network.dyn_peer[11]  lookupTimeSig:vector  ETV
18022	154364 1396 615 142453 116.4 6122.53072182501 43 0.2 3.1 42.2 62.6
vector 18025  Network.dyn_peer[12]  lookupHopsSig:vector  ETV
18025	158366 1215 678 164161 124.4 6777.41018706364 39 1 25 340 4134
vector 18024  Network.dyn_peer[12]  lookupTimeSig:vector  ETV
18024	157090 1276 678 164161 124.4 6777.41018706364 39 0.2 2.6 37.8 48.44
vector 18027  Network.dyn_peer[13]  lookupHopsSig:vector  ETV
18027	160908 1255 729 109640 132.3 5040.831113502274 41 2 16 259 2389
vector 18026  Network.dyn_peer[13]  lookupTimeSig:vector  ETV
18026	159581 1327 729 109640 132.3 5040.831113502274 41 0.3 1.7 29.9 29.41
vector 18029  Network.dyn_peer[14]  lookupHopsSig:vector  ETV
18029	164131 1882 798 172222 140.4 7045.229703586715 60 1 26 529 7011
vector 18028  Network.dyn_peer[14]  lookupTimeSig:vector  ETV
18028	162163 1968 798 172222 140.4 7045.229703586715 60 0.2 2.7 58.8 81.2
vector 18031  Network.dyn_peer[15]  lookupHopsSig:vector  ETV
18031	167205 1130 892 190855 148 7575.615321806169 37 0 35 308 4914
vector 18030  Network.dyn_peer[15]  lookupTimeSig:vector  ETV
18030	166013 1192 892 190855 148 7575.615321806169 37 0 3.6 34.4 55.66
vector 18033  Network.dyn_peer[16]  lookupHopsSig:vector  ETV
18033	169895 1496 988 147894 156.4 6289.541194718559 47 1 25 468 6440
vector 18032  Network.dyn_peer[16]  lookupTimeSig:vector  ETV
18032	168335 1560 988 147894 156.4 6289.541194718559 47 0.2 2.6 51.4 74.14
vector 18035  Network.dyn_peer[17]  lookupHopsSig:vector  ETV
18035	172531 1085 1031 172479 164.4 7053.325533560777 35 2 17 259 2765
vector 18034  Network.dyn_peer[17]  lookupTimeSig:vector  ETV
18034	171391 1140 1031 172479 164.4 7053.325533560777 35 0.3 1.8 29.3 33.09
vector 18037  Network.dyn_peer[18]  lookupHopsSig:vector  ETV
18037	175094 1410 1089 104931 172.4 4868.123478493812 45 1 25 378 4782
vector 18036  Network.dyn_peer[18]  lookupTimeSig:vector  ETV
18036	173616 1478 1089 104931 172.4 4868.123478493812 45 0.2 2.6 42.2 55.74
vector 18039  Network.dyn_peer[19]  lookupHopsSig:vector  ETV
18039	177750 1186 1158 141382 180.2 6074.51877031716 38 1 19 235 2257
vector 18038  Network.dyn_peer[19]  lookupTimeSig:vector  ETV
18038	176504 1246 1158 141382 180.2 6074.51877031716 38 0.2 2 27.2 27.6
vector 18041  Network.dyn_peer[20]  lookupHopsSig:vector  ETV
18041	180393 1383 1213 138874 188.5 5995.041177981828 44 1 26 324 3986
vector 18040  Network.dyn_peer[20]  lookupTimeSig:vector  ETV
18040	178936 1457 1213 138874 188.5 5995.041177981828 44 0.2 2.7 36.7 46.67
vector 18043  Network.dyn_peer[21]  lookupHopsSig:vector  ETV
18043	184020 2128 1291 202902 196.6 7962.427632796661 69 1 34 527 7289
vector 18042  Network.dyn_peer[21]  lookupTimeSig:vector  ETV
18042	181776 2244 1291 202902 196.6 7962.427632796661 69 0.2 3.5 59.5 83.99
vector 18045  Network.dyn_peer[22]  lookupHopsSig:vector  ETV
18045	187726 1501 1370 191020 204.2 7580.322694658469 48 1 34 415 6299
vector 18044  Network.dyn_peer[22]  lookupTimeSig:vector  ETV
18044	186148 1578 1370 191020 204.2 7580.322694658469 48 0.2 3.5 46.2 71.72
vector 18047  Network.dyn_peer[23]  lookupHopsSig:vector  ETV
18047	190329 1051 1458 89052 212.5 4305.236537456911 34 1 19 264 2930
vector 18046  Network.dyn_peer[23]  lookupTimeSig:vector  ETV
18046	189227 1102 1458 89052 212.5 4305.236537456911 34 0.2 2 29.7 34.81
vector 18049  Network.dyn_peer[24]  lookupHopsSig:vector  ETV
18049	193353 1883 1537 173698 220.4 7087.731024862774 60 1 38 563 8533
vector 18048  Network.dyn_peer[24]  lookupTimeSig:vector  ETV
18048	191380 1973 1537 173698 220.4 7087.731024862774 60 0.2 3.9 62.2 97.1
vector 18051  Network.dyn_peer[25]  lookupHopsSig:vector  ETV
18051	196569 1260 1612 196954 228.1 7777.919098413503 41 1 20 229 2137
vector 18050  Network.dyn_peer[25]  lookupTimeSig:vector  ETV
18050	195236 1333 1612 196954 228.1 7777.919098413503 41 0.1 2.1 26.9 26.33
vector 18053  Network.dyn_peer[26]  lookupHopsSig:vector  ETV
18053	198789 907 1663 138209 236.4 5980.713885480033 30 1 41 215 3439
vector 18052  Network.dyn_peer[26]  lookupTimeSig:vector  ETV
18052	197829 960 1663 138209 236.4 5980.713885480033 30 0.2 4.2 24.4 38.9
vector 18055  Network.dyn_peer[27]  lookupHopsSig:vector  ETV
18055	201555 1770 1750 200701 244.2 7904.324581261248 56 1 35 453 6413
vector 18054  Network.dyn_peer[27]  lookupTimeSig:vector  ETV
18054	199696 1859 1750 200701 244.2 7904.324581261248 56 0.2 3.6 50.8 73.7
vector 18057  Network.dyn_peer[28]  lookupHopsSig:vector  ETV
18057	204745 1351 1805 173279 252.3 7075.212005223687 43 1 29 340 4362
vector 18056  Network.dyn_peer[28]  lookupTimeSig:vector  ETV
18056	203325 1420 1805 173279 252.3 7075.212005223687 43 0.2 3 38.2 50.78
vector 18059  Network.dyn_peer[29]  lookupHopsSig:vector  ETV
18059	207109 962 1884 185380 260.5 7417.329882674581 31 1 16 217 2175
vector 18058  Network.dyn_peer[29]  lookupTimeSig:vector  ETV
18058	206096 1013 1884 185380 260.5 7417.329882674581 31 0.2 1.7 24.7 26.29
vector 18061  Network.dyn_peer[30]  lookupHopsSig:vector  ETV
18061	209635 1483 1943 141012 268.3 6062.241401339458 48 2 17 319 2883
vector 18060  Network.dyn_peer[30]  lookupTimeSig:vector  ETV
18060	208071 1564 1943 141012 268.3 6062.241401339458 48 0.3 1.8 36.6 35.62
vector 18063  Network.dyn_peer[31]  lookupHopsSig:vector  ETV
18063	212397 1223 2069 195987 276.4 7752.728541783613 39 1 28 352 5350
vector 18062  Network.dyn_peer[31]  lookupTimeSig:vector  ETV
18062	211118 1279 2069 195987 276.4 7752.728541783613 39 0.2 2.9 39 60.84
vector 18065  Network.dyn_peer[32]  lookupHopsSig:vector  ETV
18065	216150 2415 2156 191386 284.3 7592.508979164922 76 1 32 632 7938
vector 18064  Network.dyn_peer[32]  lookupTimeSig:vector  ETV
18064	213620 2530 2156 191386 284.3 7592.508979164922 76 0.2 3.3 70.7 92.71
vector 18067  Network.dyn_peer[33]  lookupHopsSig:vector  ETV
18067	219988 1358 2251 143352 292.2 6149.739765601229 43 1 16 318 3062
vector 18066  Network.dyn_peer[33]  lookupTimeSig:vector  ETV
18066	218565 1423 2251 143352 292.2 6149.739765601229 43 0.2 1.7 36 37.36
vector 18069  Network.dyn_peer[34]  lookupHopsSig:vector  ETV
18069	222349 962 2293 166482 300 6855.11942592466 31 0 28 268 3602
vector 18068  Network.dyn_peer[34]  lookupTimeSig:vector  ETV
18068	221346 1003 2293 166482 300 6855.11942592466 31 0 2.9 29.8 41.68
vector 18071  Network.dyn_peer[35]  lookupHopsSig:vector  ETV
18071	225149 1756 2351 180719 308.3 7291.534123170193 55 2 37 542 8326
vector 18070  Network.dyn_peer[35]  lookupTimeSig:vector  ETV
18070	223311 1838 2351 180719 308.3 7291.534123170193 55 0.3 3.8 59.6 94.58
vector 18073  Network.dyn_peer[36]  lookupHopsSig:vector  ETV
18073	228486 1506 2551 120105 316.6 5370.726993481403 48 1 19 354 3486
vector 18072  Network.dyn_peer[36]  lookupTimeSig:vector  ETV
18072	226905 1581 2551 120105 316.6 5370.726993481403 48 0.2 2 40.1 42.29
vector 18075  Network.dyn_peer[37]  lookupHopsSig:vector  ETV
18075	231371 1305 2618 71397 324.6 3723.04085900209 43 2 15 236 1836
vector 18074  Network.dyn_peer[37]  lookupTimeSig:vector  ETV
18074	229992 1379 2618 71397 324.6 3723.04085900209 43 0.3 1.6 27.8 23.38
vector 18077  Network.dyn_peer[38]  lookupHopsSig:vector  ETV
18077	233552 835 2720 138930 332.2 5996.421238417231 27 1 21 216 2668
vector 18076  Network.dyn_peer[38]  lookupTimeSig:vector  ETV
18076	232676 876 2720 138930 332.2 5996.421238417231 27 0.2 2.2 24.2 31.22
vector 18079  Network.dyn_peer[39]  lookupHopsSig:vector  ETV
18079	235491 1061 2865 127607 340.1 5622.933330920735 34 1 19 285 3125
vector 18078  Network.dyn_peer[39]  lookupTimeSig:vector  ETV
18078	234387 1104 2865 127607 340.1 5622.933330920735 34 0.1 2 31.8 37.26
vector 18081  Network.dyn_peer[40]  lookupHopsSig:vector  ETV
18081	238278 1649 2925 162184 348.3 6720.932231323403 52 1 32 471 6235
vector 18080  Network.dyn_peer[40]  lookupTimeSig:vector  ETV
18080	236552 1726 2925 162184 348.3 6720.932231323403 52 0.2 3.3 52.2 72.22
vector 18083  Network.dyn_peer[41]  lookupHopsSig:vector  ETV
18083	241013 1025 2985 72451 356.4 3764.733395152629 34 1 21 179 1535
vector 18082  Network.dyn_peer[41]  lookupTimeSig:vector  ETV
18082	239927 1086 2985 72451 356.4 3764.733395152629 34 0.2 2.2 21.2 19.18
vector 18085  Network.dyn_peer[42]  lookupHopsSig:vector  ETV
18085	243426 1317 3034 196646 364.3 7768.925113343019 43 1 36 309 4345
vector 18084  Network.dyn_peer[42]  lookupTimeSig:vector  ETV
18084	242038 1388 3034 196646 364.3 7768.925113343019 43 0.2 3.7 35.1 49.99
vector 18087  Network.dyn_peer[43]  lookupHopsSig:vector  ETV
18087	246417 1601 3113 195489 372.4 7738.630824514057 51 1 20 437 5479
vector 18086  Network.dyn_peer[43]  lookupTimeSig:vector  ETV
18086	244743 1674 3113 195489 372.4 7738.630824514057 51 0.2 2.1 48.7 63.95
vector 18089  Network.dyn_peer[44]  lookupHopsSig:vector  ETV
18089	249264 1196 3182 145542 380.4 6228.653952245935 38 1 24 357 4637
vector 18088  Network.dyn_peer[44]  lookupTimeSig:vector  ETV
18088	248018 1246 3182 145542 380.4 6228.653952245935 38 0.2 2.5 39.4 53.8
vector 18091  Network.dyn_peer[45]  lookupHopsSig:vector  ETV
18091	251322 812 3244 50175 388.5 2859.339113002081 27 1 21 123 1013
vector 18090  Network.dyn_peer[45]  lookupTimeSig:vector  ETV
18090	250460 862 3244 50175 388.5 2859.339113002081 27 0.2 2.2 14.9 12.75
vector 18093  Network.dyn_peer[46]  lookupHopsSig:vector  ETV
18093	253050 874 3295 79705 396.6 4024.251341301494 28 1 24 252 3222
vector 18092  Network.dyn_peer[46]  lookupTimeSig:vector  ETV
18092	252134 916 3295 79705 396.6 4024.251341301494 28 0.2 2.5 27.9 37.41
vector 18095  Network.dyn_peer[47]  lookupHopsSig:vector  ETV
18095	255316 1329 3356 168117 404.2 6922.023485334674 42 2 23 344 3694
vector 18094  Network.dyn_peer[47]  lookupTimeSig:vector  ETV
18094	253924 1392 3356 168117 404.2 6922.023485334674 42 0.2 2.4 38.5 44.19
vector 18097  Network.dyn_peer[48]  lookupHopsSig:vector  ETV
18097	258097 1386 3405 91100 412.1 4383.413563662738 44 1 24 375 4393
vector 18096  Network.dyn_peer[48]  lookupTimeSig:vector  ETV
18096	256645 1452 3405 91100 412.1 4383.413563662738 44 0.1 2.5 41.8 51.84
vector 18099  Network.dyn_peer[49]  lookupHopsSig:vector  ETV
18099	260088 573 3443 23405 420.1 1644.957160375925 19 1 9 93 563
vector 18098  Network.dyn_peer[49]  lookupTimeSig:vector  ETV
18098	259483 605 3443 23405 420.1 1644.957160375925 19 0.1 1 11.1 7.65
vector 18101  Network.dyn_peer[50]  lookupHopsSig:vector  ETV
18101	261909 1195 3634 168820 428.1 6947.025105325359 38 1 20 335 4255
vector 18100  Network.dyn_peer[50]  lookupTimeSig:vector  ETV
18100	260661 1248 3634 168820 428.1 6947.025105325359 38 0.1 2.1 37.2 49.6
vector 18103  Network.dyn_peer[51]  lookupHopsSig:vector  ETV
18103	263925 789 3708 67497 436 3580.327694735701 26 0 20 197 2215
vector 18102  Network.dyn_peer[51]  lookupTimeSig:vector  ETV
18102	263104 821 3708 67497 436 3580.327694735701 26 0 2.1 22.2 26.34
vector 18105  Network.dyn_peer[52]  lookupHopsSig:vector  ETV
18105	266247 1460 3784 84862 444.4 4185.615351495474 47 1 22 291 2697
vector 18104  Network.dyn_peer[52]  lookupTimeSig:vector  ETV
18104	264714 1533 3784 84862 444.4 4185.615351495474 47 0.2 2.3 33.7 33.17
vector 18107  Network.dyn_peer[53]  lookupHopsSig:vector  ETV
18107	268305 561 3870 22070 452.2 1592.729497906934 19 2 15 103 719
vector 18106  Network.dyn_peer[53]  lookupTimeSig:vector  ETV
18106	267707 598 3870 22070 452.2 1592.729497906934 19 0.2 1.6 12.1 9.39
vector 18109  Network.dyn_peer[54]  lookupHopsSig:vector  ETV
18109	269688 775 4079 130877 460.1 5729.516171888516 25 1 14 124 918
vector 18108  Network.dyn_peer[54]  lookupTimeSig:vector  ETV
18108	268866 822 4079 130877 460.1 5729.516171888516 25 0.1 1.5 14.8 11.88
vector 18111  Network.dyn_peer[55]  lookupHopsSig:vector  ETV
18111	271138 641 4148 137883 468.7 5972.132021101784 21 1 17 142 1290
vector 18110  Network.dyn_peer[55]  lookupTimeSig:vector  ETV
18110	270463 675 4148 137883 468.7 5972.132021101784 21 0.2 1.8 16.2 15.8
vector 18113  Network.dyn_peer[56]  lookupHopsSig:vector  ETV
18113	272330 527 4325 126359 476.3 5583.431870220679 17 2 21 143 1581
vector 18112  Network.dyn_peer[56]  lookupTimeSig:vector  ETV
18112	271779 551 4325 126359 476.3 5583.431870220679 17 0.3 2.2 15.9 18.77
vector 18115  Network.dyn_peer[57]  lookupHopsSig:vector  ETV
18115	273829 926 4463 200496 484.3 7896.325842062553 30 1 26 212 2618
vector 18114  Network.dyn_peer[57]  lookupTimeSig:vector  ETV
18114	272857 972 4463 200496 484.3 7896.325842062553 30 0.2 2.7 24.1 30.65
vector 18117  Network.dyn_peer[58]  lookupHopsSig:vector  ETV
18117	275591 788 4549 20193 492.3 1487.917950782641 26 3 15 164 1268
vector 18116  Network.dyn_peer[58]  lookupTimeSig:vector  ETV
18116	274755 836 4549 20193 492.3 1487.917950782641 26 0.3 1.6 18.9 16.15
vector 18119  Network.dyn_peer[59]  lookupHopsSig:vector  ETV
18119	278467 1996 4605 101720 500.2 4736.158778665564 63 1 28 483 5561
vector 18118  Network.dyn_peer[59]  lookupTimeSig:vector  ETV
18118	276379 2088 4605 101720 500.2 4736.158778665564 63 0.2 2.9 54.5 65.85
vector 18121  Network.dyn_peer[60]  lookupHopsSig:vector  ETV
18121	281007 519 4694 155721 508.6 6516.424334715256 17 1 29 149 2111
vector 18120  Network.dyn_peer[60]  lookupTimeSig:vector  ETV
18120	280463 544 4694 155721 508.6 6516.424334715256 17 0.2 3 16.5 24.13
vector 18123  Network.dyn_peer[61]  lookupHopsSig:vector  ETV
18123	281866 323 4810 190705 516.3 7572.12513662875 11 1 20 85 1057
vector 18122  Network.dyn_peer[61]  lookupTimeSig:vector  ETV
18122	281526 340 4810 190705 516.3 7572.12513662875 11 0.2 2.1 9.5 12.31
vector 18125  Network.dyn_peer[62]  lookupHopsSig:vector  ETV
18125	283418 1166 4846 136677 524 5940.729046668475 38 0 22 230 2142
vector 18124  Network.dyn_peer[62]  lookupTimeSig:vector  ETV
18124	282189 1229 4846 136677 524 5940.729046668475 38 0 2.3 26.7 26.39
vector 18127  Network.dyn_peer[63]  lookupHopsSig:vector  ETV
18127	285401 778 4902 194953 532.5 7715.128346413687 25 2 18 197 1957
vector 18126  Network.dyn_peer[63]  lookupTimeSig:vector  ETV
18126	284584 817 4902 194953 532.5 7715.128346413687 25 0.3 1.9 22.1 23.65
vector 18129  Network.dyn_peer[64]  lookupHopsSig:vector  ETV
18129	286943 730 5060 171858 540.5 7032.747111117475 23 2 16 205 2287
vector 18128  Network.dyn_peer[64]  lookupTimeSig:vector  ETV
18128	286179 764 5060 171858 540.5 7032.747111117475 23 0.3 1.7 22.7 27.09
vector 18131  Network.dyn_peer[65]  lookupHopsSig:vector  ETV
18131	288893 1169 5196 107815 548.6 4973.641466685957 37 1 23 342 4368
vector 18130  Network.dyn_peer[65]  lookupTimeSig:vector  ETV
18130	287673 1220 5196 107815 548.6 4973.641466685957 37 0.2 2.4 37.8 50.76
vector 18133  Network.dyn_peer[66]  lookupHopsSig:vector  ETV
18133	291261 1155 5343 199922 556.6 7873.714549059396 36 2 31 445 7571
vector 18132  Network.dyn_peer[66]  lookupTimeSig:vector  ETV
18132	290062 1199 5343 199922 556.6 7873.714549059396 36 0.3 3.2 48 84.84
vector 18135  Network.dyn_peer[67]  lookupHopsSig:vector  ETV
18135	293539 1075 5495 164262 565.2 6781.131972748083 34 1 29 317 4145
vector 18134  Network.dyn_peer[67]  lookupTimeSig:vector  ETV
18134	292416 1123 5495 164262 565.2 6781.131972748083 34 0.2 3 35 47.88
vector 18137  Network.dyn_peer[68]  lookupHopsSig:vector  ETV
18137	296193 1507 5636 160983 572.3 6689.762095051461 47 1 24 416 5056
vector 18136  Network.dyn_peer[68]  lookupTimeSig:vector  ETV
18136	294614 1579 5636 160983 572.3 6689.762095051461 47 0.2 2.5 46.2 59.28
vector 18139  Network.dyn_peer[69]  lookupHopsSig:vector  ETV
18139	298563 828 5711 147059 580.5 6267.027075057412 27 2 18 237 2727
vector 18138  Network.dyn_peer[69]  lookupTimeSig:vector  ETV
18138	297700 863 5711 147059 580.5 6267.027075057412 27 0.3 1.9 26.3 32.17
vector 18141  Network.dyn_peer[70]  lookupHopsSig:vector  ETV
18141	300160 723 5841 92041 588.9 4405.351130528407 24 1 24 138 1386
vector 18140  Network.dyn_peer[70]  lookupTimeSig:vector  ETV
18140	299391 769 5841 92041 588.9 4405.351130528407 24 0.2 2.5 16.1 16.67
vector 18143  Network.dyn_peer[71]  lookupHopsSig:vector  ETV
18143	301990 1054 5961 147014 596.5 6265.822301893691 34 1 20 254 2750
vector 18142  Network.dyn_peer[71]  lookupTimeSig:vector  ETV
18142	300883 1107 5961 147014 596.5 6265.822301893691 34 0.2 2.1 28.7 32.81
vector 18145  Network.dyn_peer[72]  lookupHopsSig:vector  ETV
18145	304059 965 6067 122904 604.3 5476.619105528195 31 1 22 242 2546
vector 18144  Network.dyn_peer[72]  lookupTimeSig:vector  ETV
18144	303044 1015 6067 122904 604.3 5476.619105528195 31 0.2 2.3 27.2 30.54
vector 18147  Network.dyn_peer[73]  lookupHopsSig:vector  ETV
18147	306663 1562 6186 199820 612.3 7871.530685807784 49 1 27 408 5492
vector 18146  Network.dyn_peer[73]  lookupTimeSig:vector  ETV
18146	305024 1639 6186 199820 612.3 7871.530685807784 49 0.2 2.8 45.6 63.5
vector 18149  Network.dyn_peer[74]  lookupHopsSig:vector  ETV
18149	308502 262 6338 126198 620.9 5579.530280117746 9 1 21 75 977
vector 18148  Network.dyn_peer[74]  lookupTimeSig:vector  ETV
18148	308225 277 6338 126198 620.9 5579.530280117746 9 0.2 2.2 8.3 11.17
vector 18151  Network.dyn_peer[75]  lookupHopsSig:vector  ETV
18151	310660 1807 6470 185103 628.2 7407.534402252573 57 1 37 534 8214
vector 18150  Network.dyn_peer[75]  lookupTimeSig:vector  ETV
18150	308764 1896 6470 185103 628.2 7407.534402252573 57 0.2 3.8 59 93.34
vector 18153  Network.dyn_peer[76]  lookupHopsSig:vector  ETV
18153	313818 1292 6569 120019 636.4 5367.229111003061 41 1 34 359 5097
vector 18152  Network.dyn_peer[76]  lookupTimeSig:vector  ETV
18152	312467 1351 6569 120019 636.4 5367.229111003061 41 0.2 3.5 39.9 58.47
vector 18155  Network.dyn_peer[77]  lookupHopsSig:vector  ETV
18155	316319 1160 6605 203999 644.7 7993.646103937716 36 1 37 393 6299
vector 18154  Network.dyn_peer[77]  lookupTimeSig:vector  ETV
18154	315110 1209 6605 203999 644.7 7993.646103937716 36 0.2 3.8 42.8 71.06
vector 18157  Network.dyn_peer[78]  lookupHopsSig:vector  ETV
18157	318331 813 6721 180154 653.1 7276.526240948515 26 2 24 225 2981
vector 18156  Network.dyn_peer[78]  lookupTimeSig:vector  ETV
18156	317479 852 6721 180154 653.1 7276.526240948515 26 0.3 2.5 25 34.34
vector 18159  Network.dyn_peer[79]  lookupHopsSig:vector  ETV
18159	320334 1133 6759 169862 660.4 6975.025322654736 36 1 27 330 4562
vector 18158  Network.dyn_peer[79]  lookupTimeSig:vector  ETV
18158	319144 1190 6759 169862 660.4 6975.025322654736 36 0.2 2.8 36.5 52.49
vector 18161  Network.dyn_peer[80]  lookupHopsSig:vector  ETV
18161	322714 1188 6802 92421 668.2 4415.93754102255 38 1 23 303 3353
vector 18160  Network.dyn_peer[80]  lookupTimeSig:vector  ETV
18160	321467 1247 6802 92421 668.2 4415.93754102255 38 0.2 2.4 34 39.92
vector 18163  Network.dyn_peer[81]  lookupHopsSig:vector  ETV
18163	324539 606 6843 138061 676.3 5976.211388906705 20 1 22 142 1536
vector 18162  Network.dyn_peer[81]  lookupTimeSig:vector  ETV
18162	323902 637 6843 138061 676.3 5976.211388906705 20 0.2 2.3 16.1 18.33
vector 18165  Network.dyn_peer[82]  lookupHopsSig:vector  ETV
18165	325917 731 6972 186097 684.1 7444.722902589279 24 1 21 155 1647
vector 18164  Network.dyn_peer[82]  lookupTimeSig:vector  ETV
18164	325145 772 6972 186097 684.1 7444.722902589279 24 0.1 2.2 17.8 19.78
vector 18167  Network.dyn_peer[83]  lookupHopsSig:vector  ETV
18167	327829 1128 7287 135170 692.5 5902.431101878622 36 1 30 330 4488
vector 18166  Network.dyn_peer[83]  lookupTimeSig:vector  ETV
18166	326648 1181 7287 135170 692.5 5902.431101878622 36 0.2 3.1 36.5 51.73
vector 18169  Network.dyn_peer[84]  lookupHopsSig:vector  ETV
18169	330170 1160 7399 163694 700.9 6761.022498431851 37 1 23 321 3969
vector 18168  Network.dyn_peer[84]  lookupTimeSig:vector  ETV
18168	328957 1213 7399 163694 700.9 6761.022498431851 37 0.2 2.4 35.7 46.29
vector 18171  Network.dyn_peer[85]  lookupHopsSig:vector  ETV
18171	332452 1070 7507 165169 708.9 6813.341077144097 34 1 18 299 3723
vector 18170  Network.dyn_peer[85]  lookupTimeSig:vector  ETV
18170	331330 1122 7507 165169 708.9 6813.341077144097 34 0.2 1.9 33.2 43.36
vector 18173  Network.dyn_peer[86]  lookupHopsSig:vector  ETV
18173	334440 886 7578 163119 716.7 6746.933052488115 28 2 36 323 5245
vector 18172  Network.dyn_peer[86]  lookupTimeSig:vector  ETV
18172	333522 918 7578 163119 716.7 6746.933052488115 28 0.3 3.7 35 59.04
vector 18175  Network.dyn_peer[87]  lookupHopsSig:vector  ETV
18175	336365 984 7659 75947 724.5 3907.022168508496 32 1 18 214 2038
vector 18174  Network.dyn_peer[87]  lookupTimeSig:vector  ETV
18174	335326 1039 7659 75947 724.5 3907.022168508496 32 0.2 1.9 24.5 24.87
vector 18177  Network.dyn_peer[88]  lookupHopsSig:vector  ETV
18177	337754 381 7790 152411 732.4 6418.714971235729 13 3 15 85 709
vector 18176  Network.dyn_peer[88]  lookupTimeSig:vector  ETV
18176	337349 405 7790 152411 732.4 6418.714971235729 13 0.4 1.6 9.7 8.83
vector 18179  Network.dyn_peer[89]  lookupHopsSig:vector  ETV
18179	338938 759 7955 183938 740.5 7379.923379882579 25 1 25 187 1985
vector 18178  Network.dyn_peer[89]  lookupTimeSig:vector  ETV
18178	338135 803 7955 183938 740.5 7379.923379882579 25 0.2 2.6 21.1 23.73
vector 18181  Network.dyn_peer[90]  lookupHopsSig:vector  ETV
18181	340907 1151 8188 149920 748.6 6344.432794395703 37 2 25 281 2847
vector 18180  Network.dyn_peer[90]  lookupTimeSig:vector  ETV
18180	339697 1210 8188 149920 748.6 6344.432794395703 37 0.3 2.6 31.7 34.33
vector 18183  Network.dyn_peer[91]  lookupHopsSig:vector  ETV
18183	343030 926 8282 80422 756.6 4044.444526666952 30 2 21 251 2807
vector 18182  Network.dyn_peer[91]  lookupTimeSig:vector  ETV
18182	342058 972 8282 80422 756.6 4044.444526666952 30 0.3 2.2 28 33.26
vector 18185  Network.dyn_peer[92]  lookupHopsSig:vector  ETV
18185	344530 547 8419 99744 764.6 4681.045337486498 18 5 28 192 3016
vector 18184  Network.dyn_peer[92]  lookupTimeSig:vector  ETV
18184	343956 574 8419 99744 764.6 4681.045337486498 18 0.6 2.9 20.9 34.05
vector 18187  Network.dyn_peer[93]  lookupHopsSig:vector  ETV
18187	346825 1667 8483 110257 772.1 5059.117439973462 53 1 18 424 4424
vector 18186  Network.dyn_peer[93]  lookupTimeSig:vector  ETV
18186	345077 1748 8483 110257 772.1 5059.117439973462 53 0.1 1.9 47.6 53.22
vector 18189  Network.dyn_peer[94]  lookupHopsSig:vector  ETV
18189	350015 1453 8577 202104 780.7 7941.629041355919 46 1 26 379 4657
vector 18188  Network.dyn_peer[94]  lookupTimeSig:vector  ETV
18188	348492 1523 8577 202104 780.7 7941.629041355919 46 0.2 2.7 42.4 54.46
vector 18191  Network.dyn_peer[95]  lookupHopsSig:vector  ETV
18191	352658 1140 8728 194162 788.7 7691.93158332321 36 3 20 371 4853
vector 18190  Network.dyn_peer[95]  lookupTimeSig:vector  ETV
18190	351468 1190 8728 194162 788.7 7691.93158332321 36 0.4 2.1 40.6 56.16
vector 18193  Network.dyn_peer[96]  lookupHopsSig:vector  ETV
18193	354812 961 8795 105595 796.8 4890.711402079638 31 1 28 218 2686
vector 18192  Network.dyn_peer[96]  lookupTimeSig:vector  ETV
18192	353798 1014 8795 105595 796.8 4890.711402079638 31 0.2 2.9 24.8 31.36
vector 18195  Network.dyn_peer[97]  lookupHopsSig:vector  ETV
18195	356756 936 8949 104070 804.8 4834.517099296223 30 3 26 268 3330
vector 18194  Network.dyn_peer[97]  lookupTimeSig:vector  ETV
18194	355773 983 8949 104070 804.8 4834.517099296223 30 0.4 2.7 29.7 38.79
vector 18197  Network.dyn_peer[98]  lookupHopsSig:vector  ETV
18197	358306 584 9057 137314 812.7 5954.831840653149 19 2 24 175 2109
vector 18196  Network.dyn_peer[98]  lookupTimeSig:vector  ETV
18196	357692 614 9057 137314 812.7 5954.831840653149 19 0.3 2.5 19.3 24.63
vector 18199  Network.dyn_peer[99]  lookupHopsSig:vector  ETV
18199	359747 819 9115 175189 820.4 7132.455904757362 26 1 33 276 4804
vector 18198  Network.dyn_peer[99]  lookupTimeSig:vector  ETV
18198	358890 857 9115 175189 820.4 7132.455904757362 26 0.2 3.4 30.1 53.73
vector 18201  Network.dyn_peer[100]  lookupHopsSig:vector  ETV
18201	361246 649 9181 136233 828.4 5930.51355243975 21 3 23 172 2080
vector 18200  Network.dyn_peer[100]  lookupTimeSig:vector  ETV
18200	360566 680 9181 136233 828.4 5930.51355243975 21 0.4 2.4 19.2 24.36
vector 18203  Network.dyn_peer[101]  lookupHopsSig:vector  ETV
18203	362640 712 9279 107565 836.9 4964.133119895763 23 1 21 172 1730
vector 18202  Network.dyn_peer[101]  lookupTimeSig:vector  ETV
18202	361895 745 9279 107565 836.9 4964.133119895763 23 0.2 2.2 19.4 20.78
vector 18205  Network.dyn_peer[102]  lookupHopsSig:vector  ETV
18205	364101 716 9323 153155 844.2 6437.143262803326 23 1 21 222 3196
vector 18204  Network.dyn_peer[102]  lookupTimeSig:vector  ETV
18204	363352 749 9323 153155 844.2 6437.143262803326 23 0.2 2.2 24.4 36.58
vector 18207  Network.dyn_peer[103]  lookupHopsSig:vector  ETV
18207	365285 450 9374 170382 852.4 6991.239522669554 15 2 23 138 1942
vector 18206  Network.dyn_peer[103]  lookupTimeSig:vector  ETV
18206	364817 468 9374 170382 852.4 6991.239522669554 15 0.3 2.4 15.2 22.24
vector 18209  Network.dyn_peer[104]  lookupHopsSig:vector  ETV
18209	366070 318 9499 54442 860.2 3027.127278645607 11 2 16 86 870
vector 18208  Network.dyn_peer[104]  lookupTimeSig:vector  ETV
18208	365735 335 9499 54442 860.2 3027.127278645607 11 0.2 1.7 9.6 10.48
vector 18211  Network.dyn_peer[105]  lookupHopsSig:vector  ETV
18211	367367 927 9643 71234 868.5 3713.645559522147 30 2 15 201 1789
vector 18210  Network.dyn_peer[105]  lookupTimeSig:vector  ETV
18210	366388 979 9643 71234 868.5 3713.645559522147 30 0.3 1.6 23 22.1
vector 18213  Network.dyn_peer[106]  lookupHopsSig:vector  ETV
18213	368705 394 9742 69025 877.1 3643.639065509957 13 2 22 135 1757
vector 18212  Network.dyn_peer[106]  lookupTimeSig:vector  ETV
18212	368294 411 9742 69025 877.1 3643.639065509957 13 0.3 2.3 14.7 20.17
vector 18215  Network.dyn_peer[107]  lookupHopsSig:vector  ETV
18215	369674 551 9781 27836 885.4 1849.328448499949 18 5 16 177 1967
vector 18214  Network.dyn_peer[107]  lookupTimeSig:vector  ETV
18214	369099 575 9781 27836 885.4 1849.328448499949 18 0.6 1.7 19.4 23.1
vector 18217  Network.dyn_peer[108]  lookupHopsSig:vector  ETV
18217	371081 820 9837 188547 892.5 7517.518541730615 26 2 27 298 4758
vector 18216  Network.dyn_peer[108]  lookupTimeSig:vector  ETV
18216	370225 856 9837 188547 892.5 7517.518541730615 26 0.3 2.8 32.3 53.69
vector 18219  Network.dyn_peer[109]  lookupHopsSig:vector  ETV
18219	372726 796 9919 188279 900.1 7504.821210905343 25 1 26 282 4038
vector 18218  Network.dyn_peer[109]  lookupTimeSig:vector  ETV
18218	371901 825 9919 188279 900.1 7504.821210905343 25 0.1 2.7 30.6 46.24