file 737527 1369674142                                          
version 2
run Stability-227-20130521-22:43:26-23591
attr configname Stability
attr datetime 20130521-22:43:26
attr experiment Stability
attr inifile omnetpp.ini
attr iterationvars $0=0.0625
attr iterationvars2 "$0=0.0625, $repetition=17"
attr measurement $0=0.0625
attr network Network
attr processid 23591
attr repetition 17
attr replication #17
attr resultdir results
attr runnumber 227
attr seedset 227
vector 454003  Network.dyn_peer[1]  lookupHopsSig:vector  ETV
454003	131771 1035 119 151119 20.325 86.366440020742 34 1 42 359 6393
vector 454002  Network.dyn_peer[1]  lookupTimeSig:vector  ETV
454002	130692 1079 119 151119 20.325 86.366440020742 34 0.2 4.3 39.2 71.4
vector 454005  Network.dyn_peer[2]  lookupHopsSig:vector  ETV
454005	133570 725 129 109653 20.3875 72.964972130688 24 1 23 184 2370
vector 454004  Network.dyn_peer[2]  lookupTimeSig:vector  ETV
454004	132806 764 129 109653 20.3875 72.964972130688 24 0.2 2.4 20.7 27.57
vector 454007  Network.dyn_peer[3]  lookupHopsSig:vector  ETV
454007	135251 919 139 160032 20.45 91.489527042663 30 1 34 352 6304
vector 454006  Network.dyn_peer[3]  lookupTimeSig:vector  ETV
454006	134295 956 139 160032 20.45 91.489527042663 30 0.2 3.5 38.1 70.33
vector 454013  Network.dyn_peer[6]  lookupHopsSig:vector  ETV
454013	138779 881 152 151288 20.5375 86.436554075105 29 1 49 310 6114
vector 454012  Network.dyn_peer[6]  lookupTimeSig:vector  ETV
454012	137856 923 152 151288 20.5375 86.436554075105 29 0.1 5 33.8 67.6
vector 454001  Network.dyn_peer[0]  lookupHopsSig:vector  ETV
454001	129471 1221 159 138406 20.5625 82.068684300055 40 1 30 341 4369
vector 454000  Network.dyn_peer[0]  lookupTimeSig:vector  ETV
454000	128187 1284 159 138406 20.5625 82.068684300055 40 0.2 3.1 38 50.8
vector 454011  Network.dyn_peer[5]  lookupHopsSig:vector  ETV
454011	137230 626 166 103355 20.575 70.886798917739 21 1 22 148 1720
vector 454010  Network.dyn_peer[5]  lookupTimeSig:vector  ETV
454010	136570 660 166 103355 20.575 70.886798917739 21 0.2 2.3 16.8 20.32
vector 454015  Network.dyn_peer[7]  lookupHopsSig:vector  ETV
454015	140248 552 172 77750 20.6 62.573652491844 19 1 33 138 2118
vector 454014  Network.dyn_peer[7]  lookupTimeSig:vector  ETV
454014	139660 588 172 77750 20.6 62.573652491844 19 0.1 3.4 15.6 24.1
vector 454009  Network.dyn_peer[4]  lookupHopsSig:vector  ETV
454009	136376 194 196 45968 20.7125 50.45509328284 7 1 17 46 504
vector 454008  Network.dyn_peer[4]  lookupTimeSig:vector  ETV
454008	136170 206 196 45968 20.7125 50.45509328284 7 0.2 1.8 5.2 5.94
vector 454017  Network.dyn_peer[8]  lookupHopsSig:vector  ETV
454017	141658 822 247 159968 20.9625 91.428652542851 27 1 28 281 4471
vector 454016  Network.dyn_peer[8]  lookupTimeSig:vector  ETV
454016	140800 858 247 159968 20.9625 91.428652542851 27 0.2 2.9 30.7 50.51
vector 454027  Network.dyn_peer[13]  lookupHopsSig:vector  ETV
454027	147518 411 254 145793 20.975 84.399207526679 14 1 24 101 1357
vector 454026  Network.dyn_peer[13]  lookupTimeSig:vector  ETV
454026	147086 432 254 145793 20.975 84.399207526679 14 0.1 2.5 11.4 15.7
vector 454021  Network.dyn_peer[10]  lookupHopsSig:vector  ETV
454021	143989 493 289 13043 21.0875 33.597802745421 17 1 10 81 529
vector 454020  Network.dyn_peer[10]  lookupTimeSig:vector  ETV
454020	143464 525 289 13043 21.0875 33.597802745421 17 0.2 1.1 9.7 6.99
vector 454023  Network.dyn_peer[11]  lookupHopsSig:vector  ETV
454023	145099 585 313 75241 21.15 61.66852279935 20 1 33 173 3197
vector 454022  Network.dyn_peer[11]  lookupTimeSig:vector  ETV
454022	144482 617 313 75241 21.15 61.66852279935 20 0.2 3.4 19.2 35.54
vector 454025  Network.dyn_peer[12]  lookupHopsSig:vector  ETV
454025	146401 685 334 122447 21.2125 77.080863304534 23 1 55 255 6005
vector 454024  Network.dyn_peer[12]  lookupTimeSig:vector  ETV
454024	145684 717 334 122447 21.2125 77.080863304534 23 0.2 5.6 27.7 65.29
vector 454033  Network.dyn_peer[16]  lookupHopsSig:vector  ETV
454033	151902 758 350 104333 21.2625 71.208661066178 25 1 22 219 2947
vector 454032  Network.dyn_peer[16]  lookupTimeSig:vector  ETV
454032	151104 798 350 104333 21.2625 71.208661066178 25 0.2 2.3 24.3 34.05
vector 454019  Network.dyn_peer[9]  lookupHopsSig:vector  ETV
454019	142984 480 376 134983 21.325 81.010495977689 16 2 26 177 2929
vector 454018  Network.dyn_peer[9]  lookupTimeSig:vector  ETV
454018	142480 504 376 134983 21.325 81.010495977689 16 0.3 2.7 19.2 32.84
vector 454037  Network.dyn_peer[18]  lookupHopsSig:vector  ETV
454037	155033 1047 397 148185 21.3875 85.220995921099 34 1 29 356 5222
vector 454036  Network.dyn_peer[18]  lookupTimeSig:vector  ETV
454036	153943 1090 397 148185 21.3875 85.220995921099 34 0.2 3 38.9 59.63
vector 454035  Network.dyn_peer[17]  lookupHopsSig:vector  ETV
454035	153317 626 412 102513 21.425 70.616078791235 21 1 24 174 2306
vector 454034  Network.dyn_peer[17]  lookupTimeSig:vector  ETV
454034	152660 657 412 102513 21.425 70.616078791235 21 0.2 2.5 19.4 26.68
vector 454029  Network.dyn_peer[14]  lookupHopsSig:vector  ETV
454029	148956 990 419 163063 21.4375 95.94457303113 32 2 32 413 7115
vector 454028  Network.dyn_peer[14]  lookupTimeSig:vector  ETV
454028	147929 1027 419 163063 21.4375 95.94457303113 32 0.3 3.3 44.4 79.62
vector 454031  Network.dyn_peer[15]  lookupHopsSig:vector  ETV
454031	150538 566 448 68493 21.5 59.310549975912 19 1 23 190 2640
vector 454030  Network.dyn_peer[15]  lookupTimeSig:vector  ETV
454030	149946 592 448 68493 21.5 59.310549975912 19 0.2 2.4 20.8 30.28
vector 454039  Network.dyn_peer[19]  lookupHopsSig:vector  ETV
454039	157031 909 504 101506 21.65 70.291572341649 30 3 23 286 3720
vector 454038  Network.dyn_peer[19]  lookupTimeSig:vector  ETV
454038	156080 951 504 101506 21.65 70.291572341649 30 0.4 2.4 31.5 43.13
vector 454047  Network.dyn_peer[23]  lookupHopsSig:vector  ETV
454047	162465 662 527 159536 21.7 91.06150179109 22 2 42 213 3815
vector 454046  Network.dyn_peer[23]  lookupTimeSig:vector  ETV
454046	161770 695 527 159536 21.7 91.06150179109 22 0.2 4.3 23.4 42.58
vector 454045  Network.dyn_peer[22]  lookupHopsSig:vector  ETV
454045	161196 574 543 157375 21.7375 89.503816610969 19 2 40 208 4260
vector 454044  Network.dyn_peer[22]  lookupTimeSig:vector  ETV
454044	160596 600 543 157375 21.7375 89.503816610969 19 0.3 4.1 22.6 46.88
vector 454053  Network.dyn_peer[26]  lookupHopsSig:vector  ETV
454053	166014 227 570 50514 21.7875 52.288474062353 8 1 19 61 869
vector 454052  Network.dyn_peer[26]  lookupTimeSig:vector  ETV
454052	165776 238 570 50514 21.7875 52.288474062353 8 0.1 2 6.8 9.96
vector 454041  Network.dyn_peer[20]  lookupHopsSig:vector  ETV
454041	158737 760 586 108833 21.8125 72.702750611164 25 1 26 239 3723
vector 454040  Network.dyn_peer[20]  lookupTimeSig:vector  ETV
454040	157940 797 586 108833 21.8125 72.702750611164 25 0.2 2.7 26.3 42.15
vector 454043  Network.dyn_peer[21]  lookupHopsSig:vector  ETV
454043	160060 536 614 119741 21.875 76.227704181052 18 1 26 131 1567
vector 454042  Network.dyn_peer[21]  lookupTimeSig:vector  ETV
454042	159497 563 614 119741 21.875 76.227704181052 18 0.2 2.7 14.8 18.36
vector 454055  Network.dyn_peer[27]  lookupHopsSig:vector  ETV
454055	167364 1075 651 129952 21.95 79.465341106406 35 1 19 320 3958
vector 454054  Network.dyn_peer[27]  lookupTimeSig:vector  ETV
454054	166241 1123 651 129952 21.95 79.465341106406 35 0.2 2 35.4 46.28
vector 454049  Network.dyn_peer[24]  lookupHopsSig:vector  ETV
454049	164182 1004 658 134657 21.9625 80.906718599467 33 1 35 326 5620
vector 454048  Network.dyn_peer[24]  lookupTimeSig:vector  ETV
454048	163127 1055 658 134657 21.9625 80.906718599467 33 0.2 3.6 35.8 62.96
vector 454057  Network.dyn_peer[28]  lookupHopsSig:vector  ETV
454057	169434 951 687 142728 22.0125 83.39926915401 31 2 59 360 9074
vector 454056  Network.dyn_peer[28]  lookupTimeSig:vector  ETV
454056	168439 995 687 142728 22.0125 83.39926915401 31 0.2 6 39 98.2
vector 454051  Network.dyn_peer[25]  lookupHopsSig:vector  ETV
454051	165489 287 693 153700 22.025 87.511618481456 10 1 15 65 621
vector 454050  Network.dyn_peer[25]  lookupTimeSig:vector  ETV
454050	165186 303 693 153700 22.025 87.511618481456 10 0.2 1.6 7.4 7.52
vector 454073  Network.dyn_peer[36]  lookupHopsSig:vector  ETV
454073	181472 229 917 106174 22.5125 71.822239905698 8 2 17 66 782
vector 454072  Network.dyn_peer[36]  lookupTimeSig:vector  ETV
454072	181230 242 917 106174 22.5125 71.822239905698 8 0.2 1.8 7.3 9.17
vector 454071  Network.dyn_peer[35]  lookupHopsSig:vector  ETV
454071	180660 570 935 112418 22.55 73.880565327128 19 2 23 188 2344
vector 454070  Network.dyn_peer[35]  lookupTimeSig:vector  ETV
454070	180067 593 935 112418 22.55 73.880565327128 19 0.3 2.4 20.6 27.32
vector 454065  Network.dyn_peer[32]  lookupHopsSig:vector  ETV
454065	176619 503 948 29752 22.5625 43.002412158765 17 2 14 103 823
vector 454064  Network.dyn_peer[32]  lookupTimeSig:vector  ETV
454064	176087 532 948 29752 22.5625 43.002412158765 17 0.3 1.5 11.9 10.35
vector 454059  Network.dyn_peer[29]  lookupHopsSig:vector  ETV
454059	171191 765 959 157179 22.575 89.383031538541 25 1 26 223 2883
vector 454058  Network.dyn_peer[29]  lookupTimeSig:vector  ETV
454058	170385 806 959 157179 22.575 89.383031538541 25 0.2 2.7 24.7 33.39
vector 454075  Network.dyn_peer[37]  lookupHopsSig:vector  ETV
454075	182169 448 963 158017 22.575 89.924180798735 15 2 41 185 3857
vector 454074  Network.dyn_peer[37]  lookupTimeSig:vector  ETV
454074	181701 468 963 158017 22.575 89.924180798735 15 0.2 4.2 19.9 42.37
vector 454063  Network.dyn_peer[31]  lookupHopsSig:vector  ETV
454063	175369 718 974 117584 22.6 75.537626274199 24 1 24 177 1929
vector 454062  Network.dyn_peer[31]  lookupTimeSig:vector  ETV
454062	174608 761 974 117584 22.6 75.537626274199 24 0.2 2.5 20 22.94
vector 454061  Network.dyn_peer[30]  lookupHopsSig:vector  ETV
454061	173313 1295 1003 162382 22.6375 94.373554952424 42 1 47 481 9541
vector 454060  Network.dyn_peer[30]  lookupTimeSig:vector  ETV
454060	171956 1357 1003 162382 22.6375 94.373554952424 42 0.2 4.8 52.2 105.3
vector 454081  Network.dyn_peer[40]  lookupHopsSig:vector  ETV
454081	184781 284 1020 7023 22.6625 29.047647240426 10 1 12 46 308
vector 454080  Network.dyn_peer[40]  lookupTimeSig:vector  ETV
454080	184478 303 1020 7023 22.6625 29.047647240426 10 0.1 1.3 5.5 4.07
vector 454069  Network.dyn_peer[34]  lookupHopsSig:vector  ETV
454069	179144 923 1037 120090 22.6875 76.334097811489 30 3 27 315 4431
vector 454068  Network.dyn_peer[34]  lookupTimeSig:vector  ETV
454068	178181 963 1037 120090 22.6875 76.334097811489 30 0.4 2.8 34.4 50.8
vector 454079  Network.dyn_peer[39]  lookupHopsSig:vector  ETV
454079	184112 366 1091 6319 22.8 28.463162986624 13 1 6 47 199
vector 454078  Network.dyn_peer[39]  lookupTimeSig:vector  ETV
454078	183720 392 1091 6319 22.8 28.463162986624 13 0.2 0.7 5.9 2.99
vector 454077  Network.dyn_peer[38]  lookupHopsSig:vector  ETV
454077	183181 539 1118 36406 22.8375 46.277981113502 18 3 19 153 1837
vector 454076  Network.dyn_peer[38]  lookupTimeSig:vector  ETV
454076	182617 564 1118 36406 22.8375 46.277981113502 18 0.4 2 17 21.52
vector 454087  Network.dyn_peer[43]  lookupHopsSig:vector  ETV
454087	188487 513 1129 149708 22.85 85.80353113575 17 1 26 151 2067
vector 454086  Network.dyn_peer[43]  lookupTimeSig:vector  ETV
454086	187950 537 1129 149708 22.85 85.80353113575 17 0.1 2.7 16.7 23.83
vector 454067  Network.dyn_peer[33]  lookupHopsSig:vector  ETV
454067	177661 520 1231 148992 23.025 85.533298861219 17 3 29 199 3151
vector 454066  Network.dyn_peer[33]  lookupTimeSig:vector  ETV
454066	177122 539 1231 148992 23.025 85.533298861219 17 0.4 3 21.5 35.47
vector 454083  Network.dyn_peer[41]  lookupHopsSig:vector  ETV
454083	185840 734 1289 133602 23.125 80.590205394775 24 1 21 161 1577
vector 454082  Network.dyn_peer[41]  lookupTimeSig:vector  ETV
454082	185065 775 1289 133602 23.125 80.590205394775 24 0.2 2.2 18.4 19.12
vector 454085  Network.dyn_peer[42]  lookupHopsSig:vector  ETV
454085	187279 671 1322 108717 23.1875 72.664520529976 22 2 42 245 4967
vector 454084  Network.dyn_peer[42]  lookupTimeSig:vector  ETV
454084	186574 705 1322 108717 23.1875 72.664520529976 22 0.3 4.3 26.6 54.68
vector 454097  Network.dyn_peer[48]  lookupHopsSig:vector  ETV
454097	193134 675 1371 111392 23.2625 73.535277026787 22 1 29 241 3689
vector 454096  Network.dyn_peer[48]  lookupTimeSig:vector  ETV
454096	192437 697 1371 111392 23.2625 73.535277026787 22 0.2 3 26.2 41.88
vector 454093  Network.dyn_peer[46]  lookupHopsSig:vector  ETV
454093	191627 420 1415 89198 23.3375 66.363099273864 14 2 24 158 2476
vector 454092  Network.dyn_peer[46]  lookupTimeSig:vector  ETV
454092	191190 437 1415 89198 23.3375 66.363099273864 14 0.3 2.5 17.1 27.97
vector 454091  Network.dyn_peer[45]  lookupHopsSig:vector  ETV
454091	190819 371 1444 5912 23.375 28.129889639228 13 1 5 40 162
vector 454090  Network.dyn_peer[45]  lookupTimeSig:vector  ETV
454090	190422 397 1444 5912 23.375 28.129889639228 13 0.2 0.6 5.2 2.44
vector 454099  Network.dyn_peer[49]  lookupHopsSig:vector  ETV
454099	194121 300 1473 138521 23.425 82.108825588854 10 2 34 130 2584
vector 454098  Network.dyn_peer[49]  lookupTimeSig:vector  ETV
454098	193809 312 1473 138521 23.425 82.108825588854 10 0.3 3.5 13.9 28.47
vector 454095  Network.dyn_peer[47]  lookupHopsSig:vector  ETV
454095	192249 188 1577 4183 23.6 26.520472726686 7 1 7 29 155
vector 454094  Network.dyn_peer[47]  lookupTimeSig:vector  ETV
454094	192047 202 1577 4183 23.6 26.520472726686 7 0.2 0.8 3.5 2.07
vector 454103  Network.dyn_peer[51]  lookupHopsSig:vector  ETV
454103	195840 350 1604 102728 23.65 70.68491391055 12 3 18 125 1657
vector 454102  Network.dyn_peer[51]  lookupTimeSig:vector  ETV
454102	195471 369 1604 102728 23.65 70.68491391055 12 0.4 1.9 13.6 19.1
vector 454105  Network.dyn_peer[52]  lookupHopsSig:vector  ETV
454105	196860 638 1775 126851 23.9125 78.495770928983 21 1 29 212 3152
vector 454104  Network.dyn_peer[52]  lookupTimeSig:vector  ETV
454104	196190 670 1775 126851 23.9125 78.495770928983 21 0.2 3 23.2 35.84
vector 454109  Network.dyn_peer[54]  lookupHopsSig:vector  ETV
454109	199141 767 1795 149100 23.9375 85.574455676971 25 1 34 281 4635
vector 454108  Network.dyn_peer[54]  lookupTimeSig:vector  ETV
454108	198343 798 1795 149100 23.9375 85.574455676971 25 0.2 3.5 30.5 52.11
vector 454119  Network.dyn_peer[59]  lookupHopsSig:vector  ETV
454119	206531 380 1811 58627 23.95 55.467533769638 13 1 19 102 1244
vector 454118  Network.dyn_peer[59]  lookupTimeSig:vector  ETV
454118	206135 396 1811 58627 23.95 55.467533769638 13 0.2 2 11.4 14.56
vector 454101  Network.dyn_peer[50]  lookupHopsSig:vector  ETV
454101	194959 512 1844 162222 23.9875 94.092536946693 17 1 49 187 4287
vector 454100  Network.dyn_peer[50]  lookupTimeSig:vector  ETV
454100	194421 538 1844 162222 23.9875 94.092536946693 17 0.2 5 20.3 46.61
vector 454117  Network.dyn_peer[58]  lookupHopsSig:vector  ETV
454117	205215 920 1848 129259 23.9875 79.250506682693 30 2 26 288 4048
vector 454116  Network.dyn_peer[58]  lookupTimeSig:vector  ETV
454116	204249 966 1848 129259 23.9875 79.250506682693 30 0.3 2.7 31.7 46.47
vector 454111  Network.dyn_peer[55]  lookupHopsSig:vector  ETV
454111	200675 733 1859 162278 24 94.192271249308 24 2 29 259 4301
vector 454110  Network.dyn_peer[55]  lookupTimeSig:vector  ETV
454110	199908 767 1859 162278 24 94.192271249308 24 0.3 3 28.2 48.32
vector 454089  Network.dyn_peer[44]  lookupHopsSig:vector  ETV
454089	189728 694 1873 56444 24.0125 54.624726577239 23 2 21 197 2307
vector 454088  Network.dyn_peer[44]  lookupTimeSig:vector  ETV
454088	189000 728 1873 56444 24.0125 54.624726577239 23 0.3 2.2 21.9 26.99
vector 454121  Network.dyn_peer[60]  lookupHopsSig:vector  ETV
454121	207585 649 1944 163925 24.1125 99.192793646969 21 3 44 292 7344
vector 454120  Network.dyn_peer[60]  lookupTimeSig:vector  ETV
454120	206911 674 1944 163925 24.1125 99.192793646969 21 0.3 4.5 31.2 79.42
vector 454125  Network.dyn_peer[62]  lookupHopsSig:vector  ETV
454125	210679 833 1966 155652 24.1375 88.492146565194 27 1 33 308 5472
vector 454124  Network.dyn_peer[62]  lookupTimeSig:vector  ETV
454124	209810 869 1966 155652 24.1375 88.492146565194 27 0.2 3.4 33.4 61.1
vector 454129  Network.dyn_peer[64]  lookupHopsSig:vector  ETV
454129	213680 420 1985 112765 24.1625 73.992185367804 14 1 40 171 3497
vector 454128  Network.dyn_peer[64]  lookupTimeSig:vector  ETV
454128	213240 440 1985 112765 24.1625 73.992185367804 14 0.1 4.1 18.4 38.5
vector 454107  Network.dyn_peer[53]  lookupHopsSig:vector  ETV
454107	197931 412 1996 34743 24.175 45.512358301069 14 4 24 118 1330
vector 454106  Network.dyn_peer[53]  lookupTimeSig:vector  ETV
454106	197498 433 1996 34743 24.175 45.512358301069 14 0.5 2.5 13.1 15.63
vector 454113  Network.dyn_peer[56]  lookupHopsSig:vector  ETV
454113	202307 863 2069 129178 24.2625 79.225787933515 28 1 27 312 4614
vector 454112  Network.dyn_peer[56]  lookupTimeSig:vector  ETV
454112	201408 899 2069 129178 24.2625 79.225787933515 28 0.2 2.8 33.9 52.51
vector 454115  Network.dyn_peer[57]  lookupHopsSig:vector  ETV
454115	203719 530 2127 163018 24.325 95.81803503867 17 4 25 213 3029
vector 454114  Network.dyn_peer[57]  lookupTimeSig:vector  ETV
454114	203170 549 2127 163018 24.325 95.81803503867 17 0.5 2.6 22.9 34.57
vector 454123  Network.dyn_peer[61]  lookupHopsSig:vector  ETV
454123	209039 771 2162 156998 24.375 89.268058400718 25 1 51 310 6430
vector 454122  Network.dyn_peer[61]  lookupTimeSig:vector  ETV
454122	208234 805 2162 156998 24.375 89.268058400718 25 0.2 5.2 33.4 70.64
vector 454131  Network.dyn_peer[65]  lookupHopsSig:vector  ETV
454131	214378 261 2205 141552 24.425 83.025077326325 9 3 16 56 486
vector 454130  Network.dyn_peer[65]  lookupTimeSig:vector  ETV
454130	214100 278 2205 141552 24.425 83.025077326325 9 0.3 1.7 6.4 6
vector 454145  Network.dyn_peer[72]  lookupHopsSig:vector  ETV
454145	221740 886 2323 108450 24.5625 72.579185309585 29 0 36 265 4279
vector 454144  Network.dyn_peer[72]  lookupTimeSig:vector  ETV
454144	220816 924 2323 108450 24.5625 72.579185309585 29 0 3.7 29.3 48.37
vector 454137  Network.dyn_peer[68]  lookupHopsSig:vector  ETV
454137	216920 228 2362 127476 24.6125 78.691829940764 8 1 23 53 677
vector 454136  Network.dyn_peer[68]  lookupTimeSig:vector  ETV
454136	216677 243 2362 127476 24.6125 78.691829940764 8 0.2 2.4 6 7.84
vector 454139  Network.dyn_peer[69]  lookupHopsSig:vector  ETV
454139	217681 516 2493 110260 24.775 73.168366810288 17 3 26 213 3323
vector 454138  Network.dyn_peer[69]  lookupTimeSig:vector  ETV
454138	217148 533 2493 110260 24.775 73.168366810288 17 0.4 2.7 22.9 37.57
vector 454135  Network.dyn_peer[67]  lookupHopsSig:vector  ETV
454135	216222 455 2556 130955 24.85 79.779178305261 15 2 27 171 2703
vector 454134  Network.dyn_peer[67]  lookupTimeSig:vector  ETV
454134	215748 474 2556 130955 24.85 79.779178305261 15 0.3 2.8 18.5 30.47
vector 454149  Network.dyn_peer[74]  lookupHopsSig:vector  ETV
454149	223908 484 2686 132074 24.9875 80.123235965742 16 2 44 206 4464
vector 454148  Network.dyn_peer[74]  lookupTimeSig:vector  ETV
454148	223405 503 2686 132074 24.9875 80.123235965742 16 0.3 4.5 22.1 48.85
vector 454127  Network.dyn_peer[63]  lookupHopsSig:vector  ETV
454127	212395 845 2707 131097 25 79.819975205832 28 2 21 248 3106
vector 454126  Network.dyn_peer[63]  lookupTimeSig:vector  ETV
454126	211512 883 2707 131097 25 79.819975205832 28 0.3 2.2 27.5 36.09
vector 454141  Network.dyn_peer[70]  lookupHopsSig:vector  ETV
454141	218702 484 2823 136049 25.1375 81.349670853728 16 2 32 170 2780
vector 454140  Network.dyn_peer[70]  lookupTimeSig:vector  ETV
454140	218197 505 2823 136049 25.1375 81.349670853728 16 0.3 3.3 18.5 31.21
vector 454155  Network.dyn_peer[77]  lookupHopsSig:vector  ETV
454155	226372 269 2856 127245 25.175 78.618086465897 9 3 22 119 1865
vector 454154  Network.dyn_peer[77]  lookupTimeSig:vector  ETV
454154	226093 279 2856 127245 25.175 78.618086465897 9 0.3 2.3 12.7 21.05
vector 454133  Network.dyn_peer[66]  lookupHopsSig:vector  ETV
454133	215205 543 2867 69384 25.1875 59.634740891868 18 3 27 175 2203
vector 454132  Network.dyn_peer[66]  lookupTimeSig:vector  ETV
454132	214639 566 2867 69384 25.1875 59.634740891868 18 0.4 2.8 19.2 25.5
vector 454153  Network.dyn_peer[76]  lookupHopsSig:vector  ETV
454153	225736 357 2888 110564 25.2125 73.265399952371 12 3 38 160 3482
vector 454152  Network.dyn_peer[76]  lookupTimeSig:vector  ETV
454152	225362 374 2888 110564 25.2125 73.265399952371 12 0.4 3.9 17.1 38.05
vector 454159  Network.dyn_peer[79]  lookupHopsSig:vector  ETV
454159	228739 746 3062 97279 25.4 68.976737086549 25 1 49 217 4107
vector 454158  Network.dyn_peer[79]  lookupTimeSig:vector  ETV
454158	227951 788 3062 97279 25.4 68.976737086549 25 0.2 5 24.1 45.57
vector 454173  Network.dyn_peer[86]  lookupHopsSig:vector  ETV
454173	236146 711 3187 150461 25.5375 86.098993706807 23 1 37 270 4904
vector 454172  Network.dyn_peer[86]  lookupTimeSig:vector  ETV
454172	235404 742 3187 150461 25.5375 86.098993706807 23 0.1 3.8 29.2 54.64
vector 454161  Network.dyn_peer[80]  lookupHopsSig:vector  ETV
454161	230331 816 3210 163284 25.5625 96.603238701105 26 2 27 342 5512
vector 454160  Network.dyn_peer[80]  lookupTimeSig:vector  ETV
454160	229485 846 3210 163284 25.5625 96.603238701105 26 0.3 2.8 36.7 62.11
vector 454143  Network.dyn_peer[71]  lookupHopsSig:vector  ETV
454143	220017 799 3252 157809 25.6 89.779612765172 26 4 20 286 3660
vector 454142  Network.dyn_peer[71]  lookupTimeSig:vector  ETV
454142	219186 831 3252 157809 25.6 89.779612765172 26 0.5 2.1 31.1 42.35
vector 454177  Network.dyn_peer[88]  lookupHopsSig:vector  ETV
454177	239296 708 3312 135376 25.6625 81.135505211678 23 1 24 279 4307
vector 454176  Network.dyn_peer[88]  lookupTimeSig:vector  ETV
454176	238560 736 3312 135376 25.6625 81.135505211678 23 0.1 2.5 30.1 48.85
vector 454151  Network.dyn_peer[75]  lookupHopsSig:vector  ETV
454151	224885 477 3399 74638 25.75 61.448385079509 16 3 24 164 2198
vector 454150  Network.dyn_peer[75]  lookupTimeSig:vector  ETV
454150	224392 493 3399 74638 25.75 61.448385079509 16 0.4 2.5 17.9 25.21
vector 454171  Network.dyn_peer[85]  lookupHopsSig:vector  ETV
454171	234890 514 3427 134317 25.775 80.806742490476 17 2 38 208 4328
vector 454170  Network.dyn_peer[85]  lookupTimeSig:vector  ETV
454170	234353 537 3427 134317 25.775 80.806742490476 17 0.3 3.9 22.4 47.52
vector 454163  Network.dyn_peer[81]  lookupHopsSig:vector  ETV
454163	231714 548 3473 108156 25.825 72.486096019949 18 4 39 258 5372
vector 454162  Network.dyn_peer[81]  lookupTimeSig:vector  ETV
454162	231147 567 3473 108156 25.825 72.486096019949 18 0.5 4 27.5 58.91
vector 454169  Network.dyn_peer[84]  lookupHopsSig:vector  ETV
454169	234058 295 3555 117977 25.9125 75.667727081715 10 2 27 87 1279
vector 454168  Network.dyn_peer[84]  lookupTimeSig:vector  ETV
454168	233749 309 3555 117977 25.9125 75.667727081715 10 0.3 2.8 9.6 14.5
vector 454147  Network.dyn_peer[73]  lookupHopsSig:vector  ETV
454147	223026 379 3570 30729 25.925 43.49040872364 13 2 16 92 924
vector 454146  Network.dyn_peer[73]  lookupTimeSig:vector  ETV
454146	222626 400 3570 30729 25.925 43.49040872364 13 0.3 1.7 10.4 10.94
vector 454187  Network.dyn_peer[93]  lookupHopsSig:vector  ETV
454187	245774 446 3633 104911 25.975 71.400966528708 15 1 52 160 4266
vector 454186  Network.dyn_peer[93]  lookupTimeSig:vector  ETV
454186	245307 467 3633 104911 25.975 71.400966528708 15 0.1 5.3 17.4 45.98
vector 454179  Network.dyn_peer[89]  lookupHopsSig:vector  ETV
454179	240741 705 3681 121599 26.025 76.814235329737 23 2 28 223 3103
vector 454178  Network.dyn_peer[89]  lookupTimeSig:vector  ETV
454178	240004 737 3681 121599 26.025 76.814235329737 23 0.3 2.9 24.5 35.63
vector 454165  Network.dyn_peer[82]  lookupHopsSig:vector  ETV
454165	232567 291 3740 72568 26.0875 60.72702317935 10 4 26 127 2087
vector 454164  Network.dyn_peer[82]  lookupTimeSig:vector  ETV
454164	232262 305 3740 72568 26.0875 60.72702317935 10 0.5 2.7 13.6 23.32
vector 454157  Network.dyn_peer[78]  lookupHopsSig:vector  ETV
454157	227311 640 3794 97999 26.1375 69.200068873364 21 5 37 249 4443
vector 454156  Network.dyn_peer[78]  lookupTimeSig:vector  ETV
454156	226641 670 3794 97999 26.1375 69.200068873364 21 0.6 3.8 26.9 49.37
vector 454175  Network.dyn_peer[87]  lookupHopsSig:vector  ETV
454175	237727 833 3848 162419 26.2 94.451197022926 27 1 32 336 5630
vector 454174  Network.dyn_peer[87]  lookupTimeSig:vector  ETV
454174	236857 870 3848 162419 26.2 94.451197022926 27 0.2 3.3 36.2 63.14
vector 454195  Network.dyn_peer[97]  lookupHopsSig:vector  ETV
454195	250168 805 3873 137704 26.225 81.856512758804 26 1 31 296 4578
vector 454194  Network.dyn_peer[97]  lookupTimeSig:vector  ETV
454194	249328 840 3873 137704 26.225 81.856512758804 26 0.1 3.2 32.1 51.93
vector 454183  Network.dyn_peer[91]  lookupHopsSig:vector  ETV
454183	243618 702 4006 152741 26.35 87.067788055888 23 2 25 225 2807
vector 454182  Network.dyn_peer[91]  lookupTimeSig:vector  ETV
454182	242885 733 4006 152741 26.35 87.067788055888 23 0.3 2.6 24.7 32.67
vector 454201  Network.dyn_peer[100]  lookupHopsSig:vector  ETV
454201	254307 670 4068 50523 26.4125 52.292423231546 22 1 28 226 3300
vector 454200  Network.dyn_peer[100]  lookupTimeSig:vector  ETV
454200	253606 701 4068 50523 26.4125 52.292423231546 22 0.1 2.9 24.7 37.71
vector 454189  Network.dyn_peer[94]  lookupHopsSig:vector  ETV
454189	246689 445 4099 80340 26.4375 63.44852865571 15 1 26 128 1726
vector 454188  Network.dyn_peer[94]  lookupTimeSig:vector  ETV
454188	246220 469 4099 80340 26.4375 63.44852865571 15 0.2 2.7 14.2 19.86
vector 454181  Network.dyn_peer[90]  lookupHopsSig:vector  ETV
454181	242182 703 4143 110606 26.4875 73.28429848238 23 1 34 251 3933
vector 454180  Network.dyn_peer[90]  lookupTimeSig:vector  ETV
454180	241446 736 4143 110606 26.4875 73.28429848238 23 0.2 3.5 27.3 44.41
vector 454191  Network.dyn_peer[95]  lookupHopsSig:vector  ETV
454191	247505 352 4158 111455 26.5 73.559128454866 12 2 19 78 824
vector 454190  Network.dyn_peer[95]  lookupTimeSig:vector  ETV
454190	247134 371 4158 111455 26.5 73.559128454866 12 0.3 2 8.9 9.81
vector 454167  Network.dyn_peer[83]  lookupHopsSig:vector  ETV
454167	233316 433 4305 55778 26.65 54.356591632238 15 1 24 97 1405
vector 454166  Network.dyn_peer[83]  lookupTimeSig:vector  ETV
454166	232858 458 4305 55778 26.65 54.356591632238 15 0.2 2.5 11.1 15.85
vector 454193  Network.dyn_peer[96]  lookupHopsSig:vector  ETV
454193	248609 719 4416 163029 26.7625 95.853957624153 23 1 45 245 4425
vector 454192  Network.dyn_peer[96]  lookupTimeSig:vector  ETV
454192	247857 752 4416 163029 26.7625 95.853957624153 23 0.2 4.6 26.7 49.23
vector 454197  Network.dyn_peer[98]  lookupHopsSig:vector  ETV
454197	251616 614 4534 159586 26.8875 91.097955446873 20 2 25 188 2528
vector 454196  Network.dyn_peer[98]  lookupTimeSig:vector  ETV
454196	250973 643 4534 159586 26.8875 91.097955446873 20 0.3 2.6 20.7 29.09
vector 454211  Network.dyn_peer[105]  lookupHopsSig:vector  ETV
454211	259182 442 4585 29930 26.925 43.092942681932 15 1 13 96 778
vector 454210  Network.dyn_peer[105]  lookupTimeSig:vector  ETV
454210	258717 465 4585 29930 26.925 43.092942681932 15 0.2 1.4 11 9.78
vector 454209  Network.dyn_peer[104]  lookupHopsSig:vector  ETV
454209	258046 671 4728 122855 27.0625 77.210931243285 22 1 28 235 3839
vector 454208  Network.dyn_peer[104]  lookupTimeSig:vector  ETV
454208	257342 704 4728 122855 27.0625 77.210931243285 22 0.2 2.9 25.6 43.2
vector 454207  Network.dyn_peer[103]  lookupHopsSig:vector  ETV
454207	257213 129 4758 8502 27.1 30.211819516331 5 3 14 33 299
vector 454206  Network.dyn_peer[103]  lookupTimeSig:vector  ETV
454206	257075 138 4758 8502 27.1 30.211819516331 5 0.4 1.5 3.7 3.57
vector 454215  Network.dyn_peer[107]  lookupHopsSig:vector  ETV
454215	260661 483 4918 128956 27.25 79.155100158596 16 1 31 206 3974
vector 454214  Network.dyn_peer[107]  lookupTimeSig:vector  ETV
454214	260154 507 4918 128956 27.25 79.155100158596 16 0.2 3.2 22.1 43.91
vector 454203  Network.dyn_peer[101]  lookupHopsSig:vector  ETV
454203	255251 258 4943 106137 27.275 71.810419399667 9 2 15 63 597
vector 454202  Network.dyn_peer[101]  lookupTimeSig:vector  ETV
454202	254977 274 4943 106137 27.275 71.810419399667 9 0.3 1.6 7.1 7.13
vector 454223  Network.dyn_peer[111]  lookupHopsSig:vector  ETV
454223	264489 316 4968 49147 27.3 51.737791546376 11 3 12 87 765
vector 454222  Network.dyn_peer[111]  lookupTimeSig:vector  ETV
454222	264158 331 4968 49147 27.3 51.737791546376 11 0.3 1.3 9.7 9.43
vector 454185  Network.dyn_peer[92]  lookupHopsSig:vector  ETV
454185	244824 483 4987 93622 27.3125 67.801604733645 16 1 25 177 2655
vector 454184  Network.dyn_peer[92]  lookupTimeSig:vector  ETV
454184	244320 504 4987 93622 27.3125 67.801604733645 16 0.2 2.6 19.2 29.94
vector 454231  Network.dyn_peer[115]  lookupHopsSig:vector  ETV
454231	267349 543 5128 105489 27.45 71.591451810303 18 1 31 193 3347
vector 454230  Network.dyn_peer[115]  lookupTimeSig:vector  ETV
454230	266780 569 5128 105489 27.45 71.591451810303 18 0.2 3.2 21 37.46
vector 454205  Network.dyn_peer[102]  lookupHopsSig:vector  ETV
454205	256309 766 5229 129577 27.5375 79.347887763956 25 1 24 254 3830
vector 454204  Network.dyn_peer[102]  lookupTimeSig:vector  ETV
454204	255509 800 5229 129577 27.5375 79.347887763956 25 0.2 2.5 27.8 43.4
vector 454217  Network.dyn_peer[108]  lookupHopsSig:vector  ETV
454217	261648 479 5306 90371 27.6125 66.735881061052 16 2 28 162 2320
vector 454216  Network.dyn_peer[108]  lookupTimeSig:vector  ETV
454216	261144 504 5306 90371 27.6125 66.735881061052 16 0.3 2.9 17.7 26.43
vector 454225  Network.dyn_peer[112]  lookupHopsSig:vector  ETV
454225	265211 385 5368 29084 27.6625 42.643431610854 13 2 14 96 942
vector 454224  Network.dyn_peer[112]  lookupTimeSig:vector  ETV
454224	264805 406 5368 29084 27.6625 42.643431610854 13 0.3 1.5 10.8 11.34