file 637715 1369674143                                          
version 2
run Stability-258-20130521-22:45:32-23591
attr configname Stability
attr datetime 20130521-22:45:32
attr experiment Stability
attr inifile omnetpp.ini
attr iterationvars $0=0.03125
attr iterationvars2 "$0=0.03125, $repetition=18"
attr measurement $0=0.03125
attr network Network
attr processid 23591
attr repetition 18
attr replication #18
attr resultdir results
attr runnumber 258
attr seedset 258
vector 516009  Network.dyn_peer[4]  lookupHopsSig:vector  ETV
516009	132976 484 127 125289 20.25625 55.518190645585 16 1 31 159 2661
vector 516008  Network.dyn_peer[4]  lookupTimeSig:vector  ETV
516008	132469 507 127 125289 20.25625 55.518190645585 16 0.1 3.2 17.4 29.92
vector 516001  Network.dyn_peer[0]  lookupHopsSig:vector  ETV
516001	128719 505 144 69432 20.33125 43.984484812994 17 1 32 144 2124
vector 516000  Network.dyn_peer[0]  lookupTimeSig:vector  ETV
516000	128190 529 144 69432 20.33125 43.984484812994 17 0.2 3.3 16 24.22
vector 516005  Network.dyn_peer[2]  lookupHopsSig:vector  ETV
516005	130850 386 160 108808 20.39375 51.76074864264 13 2 25 117 1637
vector 516004  Network.dyn_peer[2]  lookupTimeSig:vector  ETV
516004	130445 405 160 108808 20.39375 51.76074864264 13 0.3 2.6 12.9 18.77
vector 516015  Network.dyn_peer[7]  lookupHopsSig:vector  ETV
516015	135616 439 176 71193 20.45 44.357277596172 15 2 34 138 2570
vector 516014  Network.dyn_peer[7]  lookupTimeSig:vector  ETV
516014	135155 461 176 71193 20.45 44.357277596172 15 0.2 3.5 15.2 28.56
vector 516003  Network.dyn_peer[1]  lookupHopsSig:vector  ETV
516003	129851 594 182 71900 20.4625 44.499415494128 20 2 43 185 3749
vector 516002  Network.dyn_peer[1]  lookupTimeSig:vector  ETV
516002	129224 627 182 71900 20.4625 44.499415494128 20 0.3 4.4 20.4 41.3
vector 516011  Network.dyn_peer[5]  lookupHopsSig:vector  ETV
516011	133956 474 192 75240 20.4875 45.166497000202 16 3 25 153 2007
vector 516010  Network.dyn_peer[5]  lookupTimeSig:vector  ETV
516010	133460 496 192 75240 20.4875 45.166497000202 16 0.3 2.6 16.8 23.22
vector 516019  Network.dyn_peer[9]  lookupHopsSig:vector  ETV
516019	137868 538 202 139103 20.5125 61.613105498712 18 1 46 235 6029
vector 516018  Network.dyn_peer[9]  lookupTimeSig:vector  ETV
516018	137303 565 202 139103 20.5125 61.613105498712 18 0.2 4.7 25.2 65.12
vector 516013  Network.dyn_peer[6]  lookupHopsSig:vector  ETV
516013	134803 352 207 119932 20.51875 54.14983598956 12 2 27 115 1909
vector 516012  Network.dyn_peer[6]  lookupTimeSig:vector  ETV
516012	134430 373 207 119932 20.51875 54.14983598956 12 0.3 2.8 12.6 21.44
vector 516021  Network.dyn_peer[10]  lookupHopsSig:vector  ETV
516021	138977 543 220 133423 20.54375 58.296394639095 18 1 27 190 3194
vector 516020  Network.dyn_peer[10]  lookupTimeSig:vector  ETV
516020	138406 571 220 133423 20.54375 58.296394639095 18 0.2 2.8 20.7 35.87
vector 516023  Network.dyn_peer[11]  lookupHopsSig:vector  ETV
516023	139851 312 232 25717 20.575 33.18911682889 11 1 15 64 594
vector 516022  Network.dyn_peer[11]  lookupTimeSig:vector  ETV
516022	139520 331 232 25717 20.575 33.18911682889 11 0.2 1.6 7.4 7.28
vector 516025  Network.dyn_peer[12]  lookupHopsSig:vector  ETV
516025	140570 388 244 84041 20.60625 46.91074370332 13 2 35 164 3418
vector 516024  Network.dyn_peer[12]  lookupTimeSig:vector  ETV
516024	140163 407 244 84041 20.60625 46.91074370332 13 0.2 3.6 17.6 37.54
vector 516033  Network.dyn_peer[16]  lookupHopsSig:vector  ETV
516033	144189 449 255 129666 20.63125 56.863075487178 15 1 41 166 3838
vector 516032  Network.dyn_peer[16]  lookupTimeSig:vector  ETV
516032	143718 471 255 129666 20.63125 56.863075487178 15 0.1 4.2 18 41.82
vector 516037  Network.dyn_peer[18]  lookupHopsSig:vector  ETV
516037	146599 325 278 98034 20.69375 49.661888695671 11 1 35 123 2257
vector 516036  Network.dyn_peer[18]  lookupTimeSig:vector  ETV
516036	146260 339 278 98034 20.69375 49.661888695671 11 0.1 3.6 13.3 25.11
vector 516039  Network.dyn_peer[19]  lookupHopsSig:vector  ETV
516039	147751 796 291 142680 20.725 68.446813307548 26 1 34 297 4851
vector 516038  Network.dyn_peer[19]  lookupTimeSig:vector  ETV
516038	146924 827 291 142680 20.725 68.446813307548 26 0.1 3.5 32.2 54.68
vector 516027  Network.dyn_peer[13]  lookupHopsSig:vector  ETV
516027	141465 486 300 126675 20.7375 55.922028657827 16 2 32 199 3751
vector 516026  Network.dyn_peer[13]  lookupTimeSig:vector  ETV
516026	140958 507 300 126675 20.7375 55.922028657827 16 0.3 3.3 21.4 41.58
vector 516007  Network.dyn_peer[3]  lookupHopsSig:vector  ETV
516007	131863 606 342 114474 20.825 52.92352368407 20 3 33 257 4521
vector 516006  Network.dyn_peer[3]  lookupTimeSig:vector  ETV
516006	131236 627 342 114474 20.825 52.92352368407 20 0.4 3.4 27.6 50.4
vector 516017  Network.dyn_peer[8]  lookupHopsSig:vector  ETV
516017	136694 609 368 133954 20.88125 58.52441633984 20 3 36 234 3948
vector 516016  Network.dyn_peer[8]  lookupTimeSig:vector  ETV
516016	136055 639 368 133954 20.88125 58.52441633984 20 0.4 3.7 25.3 44.23
vector 516053  Network.dyn_peer[26]  lookupHopsSig:vector  ETV
516053	155185 511 400 84422 20.94375 46.988544958439 17 1 32 178 3498
vector 516052  Network.dyn_peer[26]  lookupTimeSig:vector  ETV
516052	154652 533 400 84422 20.94375 46.988544958439 17 0.1 3.3 19.4 38.68
vector 516041  Network.dyn_peer[20]  lookupHopsSig:vector  ETV
516041	148950 381 408 82776 20.95625 46.657187933059 13 1 16 89 875
vector 516040  Network.dyn_peer[20]  lookupTimeSig:vector  ETV
516040	148547 403 408 82776 20.95625 46.657187933059 13 0.2 1.7 10.1 10.59
vector 516035  Network.dyn_peer[17]  lookupHopsSig:vector  ETV
516035	145467 793 413 133506 20.9625 58.334363384312 26 2 50 309 6847
vector 516034  Network.dyn_peer[17]  lookupTimeSig:vector  ETV
516034	144638 829 413 133506 20.9625 58.334363384312 26 0.3 5.1 33.4 74.82
vector 516031  Network.dyn_peer[15]  lookupHopsSig:vector  ETV
516031	143298 420 435 137291 21 60.286811142684 14 1 35 175 3471
vector 516030  Network.dyn_peer[15]  lookupTimeSig:vector  ETV
516030	142860 438 435 137291 21 60.286811142684 14 0.2 3.6 18.8 38.24
vector 516045  Network.dyn_peer[22]  lookupHopsSig:vector  ETV
516045	150644 610 446 120338 21.01875 54.24144270796 20 1 26 218 3416
vector 516044  Network.dyn_peer[22]  lookupTimeSig:vector  ETV
516044	150008 636 446 120338 21.01875 54.24144270796 20 0.2 2.7 23.7 38.65
vector 516029  Network.dyn_peer[14]  lookupHopsSig:vector  ETV
516029	142416 444 482 45571 21.06875 38.566513941448 15 2 23 127 1637
vector 516028  Network.dyn_peer[14]  lookupTimeSig:vector  ETV
516028	141951 465 482 45571 21.06875 38.566513941448 15 0.3 2.4 14.1 18.93
vector 516055  Network.dyn_peer[27]  lookupHopsSig:vector  ETV
516055	156001 290 533 83483 21.175 46.795821795456 10 3 40 113 2359
vector 516054  Network.dyn_peer[27]  lookupTimeSig:vector  ETV
516054	155696 305 533 83483 21.175 46.795821795456 10 0.3 4.1 12.2 25.88
vector 516049  Network.dyn_peer[24]  lookupHopsSig:vector  ETV
516049	153514 608 542 137389 21.18125 60.340811691062 20 2 35 175 2775
vector 516048  Network.dyn_peer[24]  lookupTimeSig:vector  ETV
516048	152873 641 542 137389 21.18125 60.340811691062 20 0.3 3.6 19.4 31.36
vector 516051  Network.dyn_peer[25]  lookupHopsSig:vector  ETV
516051	154394 258 562 18473 21.2125 30.746754571776 9 2 17 72 804
vector 516050  Network.dyn_peer[25]  lookupTimeSig:vector  ETV
516050	154122 272 562 18473 21.2125 30.746754571776 9 0.3 1.8 8 9.48
vector 516067  Network.dyn_peer[33]  lookupHopsSig:vector  ETV
516067	160368 516 599 116851 21.2625 53.436581325359 17 2 30 199 3357
vector 516066  Network.dyn_peer[33]  lookupTimeSig:vector  ETV
516066	159829 539 599 116851 21.2625 53.436581325359 17 0.2 3.1 21.5 37.67
vector 516061  Network.dyn_peer[30]  lookupHopsSig:vector  ETV
516061	158087 359 606 124801 21.26875 55.380947222286 12 3 21 107 1335
vector 516060  Network.dyn_peer[30]  lookupTimeSig:vector  ETV
516060	157708 379 606 124801 21.26875 55.380947222286 12 0.3 2.2 11.8 15.54
vector 516075  Network.dyn_peer[37]  lookupHopsSig:vector  ETV
516075	163511 550 620 140311 21.2875 62.803561869879 18 1 27 213 3557
vector 516074  Network.dyn_peer[37]  lookupTimeSig:vector  ETV
516074	162937 574 620 140311 21.2875 62.803561869879 18 0.1 2.8 23 39.98
vector 516057  Network.dyn_peer[28]  lookupHopsSig:vector  ETV
516057	156733 421 633 100713 21.30625 50.174481957985 14 2 22 133 1725
vector 516056  Network.dyn_peer[28]  lookupTimeSig:vector  ETV
516056	156291 442 633 100713 21.30625 50.174481957985 14 0.3 2.3 14.6 19.96
vector 516063  Network.dyn_peer[31]  lookupHopsSig:vector  ETV
516063	158649 192 692 49722 21.4 39.604844998996 7 2 40 92 2446
vector 516062  Network.dyn_peer[31]  lookupTimeSig:vector  ETV
516062	158446 203 692 49722 21.4 39.604844998996 7 0.3 4.1 9.8 26.28
vector 516091  Network.dyn_peer[45]  lookupHopsSig:vector  ETV
516091	172491 475 717 73292 21.4375 44.77835719936 16 0 36 169 3063
vector 516090  Network.dyn_peer[45]  lookupTimeSig:vector  ETV
516090	171993 498 717 73292 21.4375 44.77835719936 16 0 3.7 18.4 34.16
vector 516085  Network.dyn_peer[42]  lookupHopsSig:vector  ETV
516085	169161 482 723 64190 21.44375 42.879293154516 16 1 25 158 1968
vector 516084  Network.dyn_peer[42]  lookupTimeSig:vector  ETV
516084	168657 504 723 64190 21.44375 42.879293154516 16 0.1 2.6 17.3 22.97
vector 516073  Network.dyn_peer[36]  lookupHopsSig:vector  ETV
516073	162677 260 735 75557 21.45625 45.226777325484 9 3 22 83 1213
vector 516072  Network.dyn_peer[36]  lookupTimeSig:vector  ETV
516072	162403 274 735 75557 21.45625 45.226777325484 9 0.3 2.3 9.1 13.81
vector 516069  Network.dyn_peer[34]  lookupHopsSig:vector  ETV
516069	161584 667 760 128911 21.49375 56.615677038612 22 1 53 232 5710
vector 516068  Network.dyn_peer[34]  lookupTimeSig:vector  ETV
516068	160884 700 760 128911 21.49375 56.615677038612 22 0.2 5.4 25.3 61.87
vector 516077  Network.dyn_peer[38]  lookupHopsSig:vector  ETV
516077	164871 775 784 139169 21.51875 61.672344965262 25 2 32 287 4579
vector 516076  Network.dyn_peer[38]  lookupTimeSig:vector  ETV
516076	164061 810 784 139169 21.51875 61.672344965262 25 0.3 3.3 31.1 51.71
vector 516059  Network.dyn_peer[29]  lookupHopsSig:vector  ETV
516059	157438 270 805 93472 21.5375 48.764135189948 9 2 17 75 831
vector 516058  Network.dyn_peer[29]  lookupTimeSig:vector  ETV
516058	157154 284 805 93472 21.5375 48.764135189948 9 0.3 1.8 8.3 9.77
vector 516081  Network.dyn_peer[40]  lookupHopsSig:vector  ETV
516081	167118 546 847 91902 21.58125 48.465440544593 18 1 24 179 2461
vector 516080  Network.dyn_peer[40]  lookupTimeSig:vector  ETV
516080	166548 570 847 91902 21.58125 48.465440544593 18 0.2 2.5 19.6 28.3
vector 516043  Network.dyn_peer[21]  lookupHopsSig:vector  ETV
516043	149678 330 855 138226 21.5875 60.917796209192 11 2 34 148 2940
vector 516042  Network.dyn_peer[21]  lookupTimeSig:vector  ETV
516042	149331 347 855 138226 21.5875 60.917796209192 11 0.3 3.5 15.8 32.28
vector 516083  Network.dyn_peer[41]  lookupHopsSig:vector  ETV
516083	168173 484 877 133525 21.6125 58.341285929756 16 3 43 182 3546
vector 516082  Network.dyn_peer[41]  lookupTimeSig:vector  ETV
516082	167664 509 877 133525 21.6125 58.341285929756 16 0.3 4.4 19.7 39.19
vector 516047  Network.dyn_peer[23]  lookupHopsSig:vector  ETV
516047	152083 790 904 131447 21.65 57.49806111072 26 1 24 273 4037
vector 516046  Network.dyn_peer[23]  lookupTimeSig:vector  ETV
516046	151254 829 904 131447 21.65 57.49806111072 26 0.2 2.5 29.8 45.9
vector 516105  Network.dyn_peer[52]  lookupHopsSig:vector  ETV
516105	178016 329 913 112133 21.65625 52.43260824802 11 0 34 134 2558
vector 516104  Network.dyn_peer[52]  lookupTimeSig:vector  ETV
516104	177678 338 913 112133 21.65625 52.43260824802 11 0 3.5 14.4 28.36
vector 516097  Network.dyn_peer[48]  lookupHopsSig:vector  ETV
516097	174860 490 1045 124714 21.83125 55.358623464867 16 2 25 189 3173
vector 516096  Network.dyn_peer[48]  lookupTimeSig:vector  ETV
516096	174348 512 1045 124714 21.83125 55.358623464867 16 0.3 2.6 20.4 35.6
vector 516065  Network.dyn_peer[32]  lookupHopsSig:vector  ETV
516065	159346 483 1125 63474 21.93125 42.726024144689 16 1 28 169 2587
vector 516064  Network.dyn_peer[32]  lookupTimeSig:vector  ETV
516064	158841 505 1125 63474 21.93125 42.726024144689 16 0.2 2.9 18.4 29.22
vector 516111  Network.dyn_peer[55]  lookupHopsSig:vector  ETV
516111	180857 578 1146 139676 21.95 62.111443361509 19 2 32 243 4323
vector 516110  Network.dyn_peer[55]  lookupTimeSig:vector  ETV
516110	180255 602 1146 139676 21.95 62.111443361509 19 0.2 3.3 26.1 48.23
vector 516095  Network.dyn_peer[47]  lookupHopsSig:vector  ETV
516095	174060 288 1190 122575 22 54.789266815973 10 3 29 135 2473
vector 516094  Network.dyn_peer[47]  lookupTimeSig:vector  ETV
516094	173760 300 1190 122575 22 54.789266815973 10 0.4 3 14.4 27.42
vector 516089  Network.dyn_peer[44]  lookupHopsSig:vector  ETV
516089	171351 642 1202 135547 22.00625 59.30635531355 21 1 29 243 4509
vector 516088  Network.dyn_peer[44]  lookupTimeSig:vector  ETV
516088	170683 668 1202 135547 22.00625 59.30635531355 21 0.2 3 26.3 50.03
vector 516071  Network.dyn_peer[35]  lookupHopsSig:vector  ETV
516071	162329 74 1218 4330 22.025 24.534563038211 3 9 13 32 350
vector 516070  Network.dyn_peer[35]  lookupTimeSig:vector  ETV
516070	162251 78 1218 4330 22.025 24.534563038211 3 0.9 1.4 3.4 3.98
vector 516107  Network.dyn_peer[53]  lookupHopsSig:vector  ETV
516107	178845 476 1267 61029 22.0875 42.208066043706 16 2 34 166 2762
vector 516106  Network.dyn_peer[53]  lookupTimeSig:vector  ETV
516106	178345 500 1267 61029 22.0875 42.208066043706 16 0.3 3.5 18.1 31.01
vector 516121  Network.dyn_peer[60]  lookupHopsSig:vector  ETV
516121	185584 356 1291 94162 22.10625 48.896172194489 12 1 26 93 1289
vector 516120  Network.dyn_peer[60]  lookupTimeSig:vector  ETV
516120	185210 374 1291 94162 22.10625 48.896172194489 12 0.2 2.7 10.4 14.82
vector 516103  Network.dyn_peer[51]  lookupHopsSig:vector  ETV
516103	177202 476 1310 83949 22.125 46.890152871807 16 2 29 161 2527
vector 516102  Network.dyn_peer[51]  lookupTimeSig:vector  ETV
516102	176704 498 1310 83949 22.125 46.890152871807 16 0.3 3 17.6 28.54
vector 516117  Network.dyn_peer[58]  lookupHopsSig:vector  ETV
516117	183389 517 1328 113396 22.14375 52.691686700066 17 1 29 183 2973
vector 516116  Network.dyn_peer[58]  lookupTimeSig:vector  ETV
516116	182848 541 1328 113396 22.14375 52.691686700066 17 0.2 3 19.9 33.49
vector 516131  Network.dyn_peer[65]  lookupHopsSig:vector  ETV
516131	189468 707 1351 141468 22.1625 64.46827083496 23 1 33 285 5685
vector 516130  Network.dyn_peer[65]  lookupTimeSig:vector  ETV
516130	188731 737 1351 141468 22.1625 64.46827083496 23 0.1 3.4 30.7 62.75
vector 516093  Network.dyn_peer[46]  lookupHopsSig:vector  ETV
516093	173373 387 1358 74718 22.16875 45.05944200312 13 1 32 142 2406
vector 516092  Network.dyn_peer[46]  lookupTimeSig:vector  ETV
516092	172966 407 1358 74718 22.16875 45.05944200312 13 0.2 3.3 15.4 26.88
vector 516087  Network.dyn_peer[43]  lookupHopsSig:vector  ETV
516087	170176 507 1365 85375 22.175 47.178301570541 17 1 22 144 1952
vector 516086  Network.dyn_peer[43]  lookupTimeSig:vector  ETV
516086	169643 533 1365 85375 22.175 47.178301570541 17 0.2 2.3 16 22.4
vector 516079  Network.dyn_peer[39]  lookupHopsSig:vector  ETV
516079	166107 441 1438 115483 22.25 53.139854739841 15 1 45 173 3819
vector 516078  Network.dyn_peer[39]  lookupTimeSig:vector  ETV
516078	165646 461 1438 115483 22.25 53.139854739841 15 0.2 4.6 18.7 41.59
vector 516099  Network.dyn_peer[49]  lookupHopsSig:vector  ETV
516099	175627 264 1454 137190 22.2625 60.213849374804 9 3 55 142 4304
vector 516098  Network.dyn_peer[49]  lookupTimeSig:vector  ETV
516098	175350 277 1454 137190 22.2625 60.213849374804 9 0.4 5.6 15 45.82
vector 516125  Network.dyn_peer[62]  lookupHopsSig:vector  ETV
516125	187015 330 1461 70579 22.26875 44.228814039882 11 2 18 119 1635
vector 516124  Network.dyn_peer[62]  lookupTimeSig:vector  ETV
516124	186670 345 1461 70579 22.26875 44.228814039882 11 0.3 1.9 12.9 18.77
vector 516123  Network.dyn_peer[61]  lookupHopsSig:vector  ETV
516123	186314 356 1527 117572 22.3375 53.596313194147 12 3 31 131 2457
vector 516122  Network.dyn_peer[61]  lookupTimeSig:vector  ETV
516122	185940 374 1527 117572 22.3375 53.596313194147 12 0.4 3.2 14.2 27.22
vector 516113  Network.dyn_peer[56]  lookupHopsSig:vector  ETV
516113	182008 551 1571 139934 22.38125 62.387150272937 18 2 31 234 4390
vector 516112  Network.dyn_peer[56]  lookupTimeSig:vector  ETV
516112	181435 573 1571 139934 22.38125 62.387150272937 18 0.3 3.2 25.1 48.63
vector 516101  Network.dyn_peer[50]  lookupHopsSig:vector  ETV
516101	176306 398 1583 128829 22.39375 56.584870113598 13 1 32 161 2663
vector 516100  Network.dyn_peer[50]  lookupTimeSig:vector  ETV
516100	175891 415 1583 128829 22.39375 56.584870113598 13 0.2 3.3 17.3 29.81
vector 516127  Network.dyn_peer[63]  lookupHopsSig:vector  ETV
516127	187712 348 1594 57754 22.4 41.488967288945 12 2 40 119 2313
vector 516126  Network.dyn_peer[63]  lookupTimeSig:vector  ETV
516126	187345 367 1594 57754 22.4 41.488967288945 12 0.3 4.1 13 25.54
vector 516109  Network.dyn_peer[54]  lookupHopsSig:vector  ETV
516109	179797 458 1615 137306 22.41875 60.292001810026 15 1 51 207 4881
vector 516108  Network.dyn_peer[54]  lookupTimeSig:vector  ETV
516108	179321 476 1615 137306 22.41875 60.292001810026 15 0.2 5.2 22.1 52.95
vector 516119  Network.dyn_peer[59]  lookupHopsSig:vector  ETV
516119	184572 638 1775 118546 22.575 53.822496071199 21 1 57 273 6521
vector 516118  Network.dyn_peer[59]  lookupTimeSig:vector  ETV
516118	183906 666 1775 118546 22.575 53.822496071199 21 0.2 5.8 29.3 70.73
vector 516145  Network.dyn_peer[72]  lookupHopsSig:vector  ETV
516145	195367 839 1782 142736 22.58125 68.824939151557 27 2 43 327 6073
vector 516144  Network.dyn_peer[72]  lookupTimeSig:vector  ETV
516144	194494 873 1782 142736 22.58125 68.824939151557 27 0.3 4.4 35.3 67.47
vector 516115  Network.dyn_peer[57]  lookupHopsSig:vector  ETV
516115	182706 142 1814 130925 22.6125 57.308270131921 5 7 19 61 839
vector 516114  Network.dyn_peer[57]  lookupTimeSig:vector  ETV
516114	182559 147 1814 130925 22.6125 57.308270131921 5 0.8 2 6.5 9.49
vector 516135  Network.dyn_peer[67]  lookupHopsSig:vector  ETV
516135	191429 136 1831 67598 22.625 43.600649673667 5 5 31 57 1147
vector 516134  Network.dyn_peer[67]  lookupTimeSig:vector  ETV
516134	191285 144 1831 67598 22.625 43.600649673667 5 0.5 3.2 6.1 12.55
vector 516157  Network.dyn_peer[78]  lookupHopsSig:vector  ETV
516157	200940 332 1875 127754 22.66875 56.243124579343 11 2 45 180 5006
vector 516156  Network.dyn_peer[78]  lookupTimeSig:vector  ETV
516156	200594 346 1875 127754 22.66875 56.243124579343 11 0.2 4.6 19 53.72
vector 516129  Network.dyn_peer[64]  lookupHopsSig:vector  ETV
516129	188403 328 1935 113972 22.73125 52.81934378077 11 1 36 148 2966
vector 516128  Network.dyn_peer[64]  lookupTimeSig:vector  ETV
516128	188060 343 1935 113972 22.73125 52.81934378077 11 0.2 3.7 15.8 32.58
vector 516143  Network.dyn_peer[71]  lookupHopsSig:vector  ETV
516143	194050 444 1952 79988 22.75 46.109023469817 15 3 35 192 4146
vector 516142  Network.dyn_peer[71]  lookupTimeSig:vector  ETV
516142	193586 464 1952 79988 22.75 46.109023469817 15 0.4 3.6 20.6 45.34
vector 516165  Network.dyn_peer[82]  lookupHopsSig:vector  ETV
516165	203965 668 2008 100668 22.79375 50.164017471258 22 1 43 225 3909
vector 516164  Network.dyn_peer[82]  lookupTimeSig:vector  ETV
516164	203263 702 2008 100668 22.79375 50.164017471258 22 0.2 4.4 24.6 43.76
vector 516155  Network.dyn_peer[77]  lookupHopsSig:vector  ETV
516155	200204 390 2061 105286 22.8375 51.060423456496 13 3 30 149 2525
vector 516154  Network.dyn_peer[77]  lookupTimeSig:vector  ETV
516154	199797 407 2061 105286 22.8375 51.060423456496 13 0.4 3.1 16.1 28.27
vector 516167  Network.dyn_peer[83]  lookupHopsSig:vector  ETV
516167	205034 382 2155 113455 22.925 52.702205182504 13 1 27 121 1917
vector 516166  Network.dyn_peer[83]  lookupTimeSig:vector  ETV
516166	204633 401 2155 113455 22.925 52.702205182504 13 0.2 2.8 13.3 21.65
vector 516169  Network.dyn_peer[84]  lookupHopsSig:vector  ETV
516169	205629 203 2191 82626 22.95625 46.625993753795 7 3 47 108 3200
vector 516168  Network.dyn_peer[84]  lookupTimeSig:vector  ETV
516168	205416 213 2191 82626 22.95625 46.625993753795 7 0.3 4.8 11.4 34.16
vector 516151  Network.dyn_peer[75]  lookupHopsSig:vector  ETV
516151	198900 739 2211 139644 22.975 62.087194418075 24 2 46 282 5118
vector 516150  Network.dyn_peer[75]  lookupTimeSig:vector  ETV
516150	198130 770 2211 139644 22.975 62.087194418075 24 0.3 4.7 30.5 56.93
vector 516153  Network.dyn_peer[76]  lookupHopsSig:vector  ETV
516153	199719 78 2251 8403 23.00625 26.712004811086 3 6 19 41 653
vector 516152  Network.dyn_peer[76]  lookupTimeSig:vector  ETV
516152	199639 80 2251 8403 23.00625 26.712004811086 3 0.6 2 4.3 7.25
vector 516141  Network.dyn_peer[70]  lookupHopsSig:vector  ETV
516141	193283 303 2364 136337 23.11875 59.725846909276 10 7 32 125 2111
vector 516140  Network.dyn_peer[70]  lookupTimeSig:vector  ETV
516140	192968 315 2364 136337 23.11875 59.725846909276 10 0.8 3.3 13.4 23.52
vector 516161  Network.dyn_peer[80]  lookupHopsSig:vector  ETV
516161	202618 298 2490 109352 23.23125 51.869918085371 10 4 38 149 3353
vector 516160  Network.dyn_peer[80]  lookupTimeSig:vector  ETV
516160	202306 312 2490 109352 23.23125 51.869918085371 10 0.5 3.9 15.8 36.46
vector 516175  Network.dyn_peer[87]  lookupHopsSig:vector  ETV
516175	207366 609 2519 138481 23.25 61.108461882537 20 2 42 255 4879
vector 516174  Network.dyn_peer[87]  lookupTimeSig:vector  ETV
516174	206728 638 2519 138481 23.25 61.108461882537 20 0.3 4.3 27.4 53.98
vector 516137  Network.dyn_peer[68]  lookupHopsSig:vector  ETV
516137	191773 197 2533 11454 23.25625 28.06928454072 7 5 11 53 423
vector 516136  Network.dyn_peer[68]  lookupTimeSig:vector  ETV
516136	191565 208 2533 11454 23.25625 28.06928454072 7 0.6 1.1 5.9 5.13
vector 516177  Network.dyn_peer[88]  lookupHopsSig:vector  ETV
516177	208350 354 2558 82845 23.28125 46.673707524635 12 2 34 106 2312
vector 516176  Network.dyn_peer[88]  lookupTimeSig:vector  ETV
516176	207975 375 2558 82845 23.28125 46.673707524635 12 0.3 3.5 11.7 25.25
vector 516147  Network.dyn_peer[73]  lookupHopsSig:vector  ETV
516147	196641 424 2597 116666 23.3125 53.397268628264 14 3 24 162 2390
vector 516146  Network.dyn_peer[73]  lookupTimeSig:vector  ETV
516146	196206 435 2597 116666 23.3125 53.397268628264 14 0.4 2.5 17.5 27.07
vector 516133  Network.dyn_peer[66]  lookupHopsSig:vector  ETV
516133	190743 542 2686 62893 23.39375 42.603912403607 18 1 40 170 3166
vector 516132  Network.dyn_peer[66]  lookupTimeSig:vector  ETV
516132	190175 568 2686 62893 23.39375 42.603912403607 18 0.2 4.1 18.7 34.97
vector 516211  Network.dyn_peer[105]  lookupHopsSig:vector  ETV
516211	223427 414 2717 83411 23.4125 46.783083161896 14 1 22 109 1323
vector 516210  Network.dyn_peer[105]  lookupTimeSig:vector  ETV
516210	222990 437 2717 83411 23.4125 46.783083161896 14 0.1 2.3 12.2 15.52
vector 516173  Network.dyn_peer[86]  lookupHopsSig:vector  ETV
516173	206425 303 2726 133795 23.41875 58.461359791432 10 5 41 157 3767
vector 516172  Network.dyn_peer[86]  lookupTimeSig:vector  ETV
516172	206110 315 2726 133795 23.41875 58.461359791432 10 0.6 4.2 16.6 40.76
vector 516195  Network.dyn_peer[97]  lookupHopsSig:vector  ETV
516195	217623 480 2775 110353 23.4625 52.069909658812 16 1 25 148 2226
vector 516194  Network.dyn_peer[97]  lookupTimeSig:vector  ETV
516194	217119 504 2775 110353 23.4625 52.069909658812 16 0.2 2.6 16.3 25.29
vector 516197  Network.dyn_peer[98]  lookupHopsSig:vector  ETV
516197	218285 175 2814 123654 23.49375 55.067827611415 6 4 12 55 555
vector 516196  Network.dyn_peer[98]  lookupTimeSig:vector  ETV
516196	218103 182 2814 123654 23.49375 55.067827611415 6 0.4 1.3 6 6.62
vector 516159  Network.dyn_peer[79]  lookupHopsSig:vector  ETV
516159	201799 507 2826 103659 23.5 50.740590465487 17 2 28 198 3236
vector 516158  Network.dyn_peer[79]  lookupTimeSig:vector  ETV
516158	201272 527 2826 103659 23.5 50.740590465487 17 0.3 2.9 21.4 36.28
vector 516199  Network.dyn_peer[99]  lookupHopsSig:vector  ETV
516199	218928 451 2966 126913 23.625 55.98671221383 15 2 20 147 1875
vector 516198  Network.dyn_peer[99]  lookupTimeSig:vector  ETV
516198	218460 468 2966 126913 23.625 55.98671221383 15 0.3 2.1 16.1 21.73
vector 516181  Network.dyn_peer[90]  lookupHopsSig:vector  ETV
516181	210465 363 2989 104134 23.64375 50.832861358024 12 4 30 154 2580
vector 516180  Network.dyn_peer[90]  lookupTimeSig:vector  ETV
516180	210087 378 2989 104134 23.64375 50.832861358024 12 0.5 3.1 16.5 28.83
vector 516201  Network.dyn_peer[100]  lookupHopsSig:vector  ETV
516201	219854 458 3010 100937 23.65625 50.215535217362 15 2 23 161 2197
vector 516200  Network.dyn_peer[100]  lookupTimeSig:vector  ETV
516200	219379 475 3010 100937 23.65625 50.215535217362 15 0.3 2.4 17.5 25.23
vector 516171  Network.dyn_peer[85]  lookupHopsSig:vector  ETV
516171	205974 136 3047 8400 23.6875 26.711451657694 5 4 12 36 312
vector 516170  Network.dyn_peer[85]  lookupTimeSig:vector  ETV
516170	205832 142 3047 8400 23.6875 26.711451657694 5 0.5 1.3 4 3.68
vector 516203  Network.dyn_peer[101]  lookupHopsSig:vector  ETV
516203	220622 294 3051 72337 23.6875 44.586267193481 10 2 27 112 2010
vector 516202  Network.dyn_peer[101]  lookupTimeSig:vector  ETV
516202	220312 310 3051 72337 23.6875 44.586267193481 10 0.3 2.8 12.1 22.33
vector 516193  Network.dyn_peer[96]  lookupHopsSig:vector  ETV
516193	216657 462 3114 81153 23.73125 46.339795791384 15 5 25 177 2593
vector 516192  Network.dyn_peer[96]  lookupTimeSig:vector  ETV
516192	216173 484 3114 81153 23.73125 46.339795791384 15 0.6 2.6 19.1 29.47
vector 516187  Network.dyn_peer[93]  lookupHopsSig:vector  ETV
516187	214099 488 3126 132037 23.7375 57.729496512273 16 1 47 217 4757
vector 516186  Network.dyn_peer[93]  lookupTimeSig:vector  ETV
516186	213593 506 3126 132037 23.7375 57.729496512273 16 0.2 4.8 23.2 51.9
vector 516213  Network.dyn_peer[106]  lookupHopsSig:vector  ETV
516213	224186 330 3135 76518 23.74375 45.413127618083 11 2 22 144 2366
vector 516212  Network.dyn_peer[106]  lookupTimeSig:vector  ETV
516212	223841 345 3135 76518 23.74375 45.413127618083 11 0.3 2.3 15.4 26.56
vector 516227  Network.dyn_peer[113]  lookupHopsSig:vector  ETV
516227	229113 575 3162 105157 23.7625 51.034703236884 19 2 21 156 1764
vector 516226  Network.dyn_peer[113]  lookupTimeSig:vector  ETV
516226	228511 602 3162 105157 23.7625 51.034703236884 19 0.2 2.2 17.4 20.9
vector 516205  Network.dyn_peer[102]  lookupHopsSig:vector  ETV
516205	221224 297 3242 119328 23.81875 54.002406146358 10 4 29 114 1780
vector 516204  Network.dyn_peer[102]  lookupTimeSig:vector  ETV
516204	220916 308 3242 119328 23.81875 54.002406146358 10 0.5 3 12.3 20.05
vector 516179  Network.dyn_peer[89]  lookupHopsSig:vector  ETV
516179	209409 678 3364 141350 23.9125 64.255670755299 22 2 30 311 6297
vector 516178  Network.dyn_peer[89]  lookupTimeSig:vector  ETV
516178	208704 705 3364 141350 23.9125 64.255670755299 22 0.3 3.1 33.2 69.18
vector 516215  Network.dyn_peer[107]  lookupHopsSig:vector  ETV
516215	224951 413 3446 100329 23.975 50.09567759356 14 4 22 150 2050
vector 516214  Network.dyn_peer[107]  lookupTimeSig:vector  ETV
516214	224516 435 3446 100329 23.975 50.09567759356 14 0.5 2.3 16.3 23.51
vector 516243  Network.dyn_peer[121]  lookupHopsSig:vector  ETV
516243	235319 181 3506 115028 24.0125 53.043981998309 6 2 28 94 2062
vector 516242  Network.dyn_peer[121]  lookupTimeSig:vector  ETV
516242	235130 189 3506 115028 24.0125 53.043981998309 6 0.2 2.9 9.9 22.51
vector 516231  Network.dyn_peer[115]  lookupHopsSig:vector  ETV
516231	230471 227 3524 34545 24.025 35.74341603173 8 4 33 73 1353
vector 516230  Network.dyn_peer[115]  lookupTimeSig:vector  ETV
516230	230230 241 3524 34545 24.025 35.74341603173 8 0.4 3.4 8 14.98
vector 516189  Network.dyn_peer[94]  lookupHopsSig:vector  ETV
516189	215123 512 3579 54188 24.06875 40.6645416151 17 1 19 136 1406
vector 516188  Network.dyn_peer[94]  lookupTimeSig:vector  ETV
516188	214587 536 3579 54188 24.06875 40.6645416151 17 0.2 2 15.2 16.72
vector 516183  Network.dyn_peer[91]  lookupHopsSig:vector  ETV
516183	211595 735 3593 140671 24.075 63.263874631556 24 3 33 290 5084
vector 516182  Network.dyn_peer[91]  lookupTimeSig:vector  ETV
516182	210828 767 3593 140671 24.075 63.263874631556 24 0.4 3.4 31.3 56.63
vector 516241  Network.dyn_peer[120]  lookupHopsSig:vector  ETV
516241	234704 426 3602 122793 24.08125 54.847840994529 14 3 26 153 2225
vector 516240  Network.dyn_peer[120]  lookupTimeSig:vector  ETV
516240	234259 445 3602 122793 24.08125 54.847840994529 14 0.3 2.7 16.6 25.38
vector 516185  Network.dyn_peer[92]  lookupHopsSig:vector  ETV
516185	212977 616 3649 139465 24.10625 61.918332676211 20 1 44 199 3531
vector 516184  Network.dyn_peer[92]  lookupTimeSig:vector  ETV
516184	212330 647 3649 139465 24.10625 61.918332676211 20 0.2 4.5 21.8 39.24
vector 516149  Network.dyn_peer[74]  lookupHopsSig:vector  ETV
516149	197608 522 3704 126655 24.14375 55.915485902899 17 3 27 224 3708
vector 516148  Network.dyn_peer[74]  lookupTimeSig:vector  ETV
516148	197065 543 3704 126655 24.14375 55.915485902899 17 0.4 2.8 24 41.36
vector 516239  Network.dyn_peer[119]  lookupHopsSig:vector  ETV
516239	233845 414 3717 67046 24.15 43.482733384334 14 1 33 144 2838
vector 516238  Network.dyn_peer[119]  lookupTimeSig:vector  ETV
516238	233408 437 3717 67046 24.15 43.482733384334 14 0.2 3.4 15.7 31.31
vector 516233  Network.dyn_peer[116]  lookupHopsSig:vector  ETV
516233	231009 294 3731 28026 24.15625 33.893711161597 10 2 26 93 1403
vector 516232  Network.dyn_peer[116]  lookupTimeSig:vector  ETV
516232	230698 311 3731 28026 24.15625 33.893711161597 10 0.3 2.7 10.2 15.88
vector 516229  Network.dyn_peer[114]  lookupHopsSig:vector  ETV