version 2
run Stability-115-20130521-22:31:28-23591
attr configname Stability
attr datetime 20130521-22:31:28
attr experiment Stability
attr inifile omnetpp.ini
attr iterationvars $0=1
attr iterationvars2 "$0=1, $repetition=25"
attr measurement $0=1
attr network Network
attr processid 23591
attr repetition 25
attr replication #25
attr resultdir results
attr runnumber 115
attr seedset 115

vector 230001  Network.dyn_peer[0]  lookupHopsSig:vector  ETV
vector 230000  Network.dyn_peer[0]  lookupTimeSig:vector  ETV
vector 230003  Network.dyn_peer[1]  lookupHopsSig:vector  ETV
vector 230002  Network.dyn_peer[1]  lookupTimeSig:vector  ETV
vector 230005  Network.dyn_peer[2]  lookupHopsSig:vector  ETV
vector 230004  Network.dyn_peer[2]  lookupTimeSig:vector  ETV
vector 230007  Network.dyn_peer[3]  lookupHopsSig:vector  ETV
vector 230006  Network.dyn_peer[3]  lookupTimeSig:vector  ETV
vector 230009  Network.dyn_peer[4]  lookupHopsSig:vector  ETV
vector 230008  Network.dyn_peer[4]  lookupTimeSig:vector  ETV
vector 230011  Network.dyn_peer[5]  lookupHopsSig:vector  ETV
vector 230010  Network.dyn_peer[5]  lookupTimeSig:vector  ETV
vector 230013  Network.dyn_peer[6]  lookupHopsSig:vector  ETV
vector 230012  Network.dyn_peer[6]  lookupTimeSig:vector  ETV
vector 230015  Network.dyn_peer[7]  lookupHopsSig:vector  ETV
vector 230014  Network.dyn_peer[7]  lookupTimeSig:vector  ETV
vector 230017  Network.dyn_peer[8]  lookupHopsSig:vector  ETV
vector 230016  Network.dyn_peer[8]  lookupTimeSig:vector  ETV
vector 230019  Network.dyn_peer[9]  lookupHopsSig:vector  ETV
vector 230018  Network.dyn_peer[9]  lookupTimeSig:vector  ETV
vector 230021  Network.dyn_peer[10]  lookupHopsSig:vector  ETV
vector 230020  Network.dyn_peer[10]  lookupTimeSig:vector  ETV
vector 230023  Network.dyn_peer[11]  lookupHopsSig:vector  ETV
vector 230022  Network.dyn_peer[11]  lookupTimeSig:vector  ETV
vector 230025  Network.dyn_peer[12]  lookupHopsSig:vector  ETV
vector 230024  Network.dyn_peer[12]  lookupTimeSig:vector  ETV
vector 230027  Network.dyn_peer[13]  lookupHopsSig:vector  ETV
vector 230026  Network.dyn_peer[13]  lookupTimeSig:vector  ETV
vector 230029  Network.dyn_peer[14]  lookupHopsSig:vector  ETV
vector 230028  Network.dyn_peer[14]  lookupTimeSig:vector  ETV
vector 230031  Network.dyn_peer[15]  lookupHopsSig:vector  ETV
vector 230030  Network.dyn_peer[15]  lookupTimeSig:vector  ETV
vector 230033  Network.dyn_peer[16]  lookupHopsSig:vector  ETV
vector 230032  Network.dyn_peer[16]  lookupTimeSig:vector  ETV
vector 230035  Network.dyn_peer[17]  lookupHopsSig:vector  ETV
vector 230034  Network.dyn_peer[17]  lookupTimeSig:vector  ETV
vector 230037  Network.dyn_peer[18]  lookupHopsSig:vector  ETV
vector 230036  Network.dyn_peer[18]  lookupTimeSig:vector  ETV
vector 230039  Network.dyn_peer[19]  lookupHopsSig:vector  ETV
vector 230038  Network.dyn_peer[19]  lookupTimeSig:vector  ETV
vector 230041  Network.dyn_peer[20]  lookupHopsSig:vector  ETV
vector 230040  Network.dyn_peer[20]  lookupTimeSig:vector  ETV
vector 230043  Network.dyn_peer[21]  lookupHopsSig:vector  ETV
vector 230042  Network.dyn_peer[21]  lookupTimeSig:vector  ETV
vector 230045  Network.dyn_peer[22]  lookupHopsSig:vector  ETV
vector 230044  Network.dyn_peer[22]  lookupTimeSig:vector  ETV
vector 230047  Network.dyn_peer[23]  lookupHopsSig:vector  ETV
vector 230046  Network.dyn_peer[23]  lookupTimeSig:vector  ETV
vector 230049  Network.dyn_peer[24]  lookupHopsSig:vector  ETV
vector 230048  Network.dyn_peer[24]  lookupTimeSig:vector  ETV
vector 230051  Network.dyn_peer[25]  lookupHopsSig:vector  ETV
vector 230050  Network.dyn_peer[25]  lookupTimeSig:vector  ETV
vector 230053  Network.dyn_peer[26]  lookupHopsSig:vector  ETV
vector 230052  Network.dyn_peer[26]  lookupTimeSig:vector  ETV
vector 230055  Network.dyn_peer[27]  lookupHopsSig:vector  ETV
vector 230054  Network.dyn_peer[27]  lookupTimeSig:vector  ETV
vector 230057  Network.dyn_peer[28]  lookupHopsSig:vector  ETV
vector 230056  Network.dyn_peer[28]  lookupTimeSig:vector  ETV
vector 230059  Network.dyn_peer[29]  lookupHopsSig:vector  ETV
vector 230058  Network.dyn_peer[29]  lookupTimeSig:vector  ETV
vector 230061  Network.dyn_peer[30]  lookupHopsSig:vector  ETV
vector 230060  Network.dyn_peer[30]  lookupTimeSig:vector  ETV
vector 230063  Network.dyn_peer[31]  lookupHopsSig:vector  ETV
vector 230062  Network.dyn_peer[31]  lookupTimeSig:vector  ETV
vector 230065  Network.dyn_peer[32]  lookupHopsSig:vector  ETV
vector 230064  Network.dyn_peer[32]  lookupTimeSig:vector  ETV
vector 230067  Network.dyn_peer[33]  lookupHopsSig:vector  ETV
vector 230066  Network.dyn_peer[33]  lookupTimeSig:vector  ETV
vector 230069  Network.dyn_peer[34]  lookupHopsSig:vector  ETV
vector 230068  Network.dyn_peer[34]  lookupTimeSig:vector  ETV
vector 230071  Network.dyn_peer[35]  lookupHopsSig:vector  ETV
vector 230070  Network.dyn_peer[35]  lookupTimeSig:vector  ETV
vector 230073  Network.dyn_peer[36]  lookupHopsSig:vector  ETV
vector 230072  Network.dyn_peer[36]  lookupTimeSig:vector  ETV
vector 230075  Network.dyn_peer[37]  lookupHopsSig:vector  ETV
vector 230074  Network.dyn_peer[37]  lookupTimeSig:vector  ETV
vector 230077  Network.dyn_peer[38]  lookupHopsSig:vector  ETV
vector 230076  Network.dyn_peer[38]  lookupTimeSig:vector  ETV
vector 230079  Network.dyn_peer[39]  lookupHopsSig:vector  ETV
vector 230078  Network.dyn_peer[39]  lookupTimeSig:vector  ETV
vector 230081  Network.dyn_peer[40]  lookupHopsSig:vector  ETV
vector 230080  Network.dyn_peer[40]  lookupTimeSig:vector  ETV
vector 230083  Network.dyn_peer[41]  lookupHopsSig:vector  ETV
vector 230082  Network.dyn_peer[41]  lookupTimeSig:vector  ETV
vector 230085  Network.dyn_peer[42]  lookupHopsSig:vector  ETV
vector 230084  Network.dyn_peer[42]  lookupTimeSig:vector  ETV
vector 230087  Network.dyn_peer[43]  lookupHopsSig:vector  ETV
vector 230086  Network.dyn_peer[43]  lookupTimeSig:vector  ETV
vector 230089  Network.dyn_peer[44]  lookupHopsSig:vector  ETV
vector 230088  Network.dyn_peer[44]  lookupTimeSig:vector  ETV
vector 230091  Network.dyn_peer[45]  lookupHopsSig:vector  ETV
vector 230090  Network.dyn_peer[45]  lookupTimeSig:vector  ETV
vector 230093  Network.dyn_peer[46]  lookupHopsSig:vector  ETV
vector 230092  Network.dyn_peer[46]  lookupTimeSig:vector  ETV
vector 230095  Network.dyn_peer[47]  lookupHopsSig:vector  ETV
vector 230094  Network.dyn_peer[47]  lookupTimeSig:vector  ETV
vector 230097  Network.dyn_peer[48]  lookupHopsSig:vector  ETV
vector 230096  Network.dyn_peer[48]  lookupTimeSig:vector  ETV
vector 230099  Network.dyn_peer[49]  lookupHopsSig:vector  ETV
vector 230098  Network.dyn_peer[49]  lookupTimeSig:vector  ETV
vector 230101  Network.dyn_peer[50]  lookupHopsSig:vector  ETV
vector 230100  Network.dyn_peer[50]  lookupTimeSig:vector  ETV
vector 230103  Network.dyn_peer[51]  lookupHopsSig:vector  ETV
vector 230102  Network.dyn_peer[51]  lookupTimeSig:vector  ETV
vector 230105  Network.dyn_peer[52]  lookupHopsSig:vector  ETV
vector 230104  Network.dyn_peer[52]  lookupTimeSig:vector  ETV
vector 230107  Network.dyn_peer[53]  lookupHopsSig:vector  ETV
vector 230106  Network.dyn_peer[53]  lookupTimeSig:vector  ETV
vector 230109  Network.dyn_peer[54]  lookupHopsSig:vector  ETV
vector 230108  Network.dyn_peer[54]  lookupTimeSig:vector  ETV
vector 230111  Network.dyn_peer[55]  lookupHopsSig:vector  ETV
vector 230110  Network.dyn_peer[55]  lookupTimeSig:vector  ETV
vector 230113  Network.dyn_peer[56]  lookupHopsSig:vector  ETV
vector 230112  Network.dyn_peer[56]  lookupTimeSig:vector  ETV
vector 230115  Network.dyn_peer[57]  lookupHopsSig:vector  ETV
vector 230114  Network.dyn_peer[57]  lookupTimeSig:vector  ETV
vector 230117  Network.dyn_peer[58]  lookupHopsSig:vector  ETV
vector 230116  Network.dyn_peer[58]  lookupTimeSig:vector  ETV
vector 230119  Network.dyn_peer[59]  lookupHopsSig:vector  ETV
vector 230118  Network.dyn_peer[59]  lookupTimeSig:vector  ETV
vector 230121  Network.dyn_peer[60]  lookupHopsSig:vector  ETV
vector 230120  Network.dyn_peer[60]  lookupTimeSig:vector  ETV
vector 230123  Network.dyn_peer[61]  lookupHopsSig:vector  ETV
vector 230122  Network.dyn_peer[61]  lookupTimeSig:vector  ETV
vector 230125  Network.dyn_peer[62]  lookupHopsSig:vector  ETV
vector 230124  Network.dyn_peer[62]  lookupTimeSig:vector  ETV
vector 230127  Network.dyn_peer[63]  lookupHopsSig:vector  ETV
vector 230126  Network.dyn_peer[63]  lookupTimeSig:vector  ETV
vector 230129  Network.dyn_peer[64]  lookupHopsSig:vector  ETV
vector 230128  Network.dyn_peer[64]  lookupTimeSig:vector  ETV
vector 230131  Network.dyn_peer[65]  lookupHopsSig:vector  ETV
vector 230130  Network.dyn_peer[65]  lookupTimeSig:vector  ETV
vector 230133  Network.dyn_peer[66]  lookupHopsSig:vector  ETV
vector 230132  Network.dyn_peer[66]  lookupTimeSig:vector  ETV
vector 230135  Network.dyn_peer[67]  lookupHopsSig:vector  ETV
vector 230134  Network.dyn_peer[67]  lookupTimeSig:vector  ETV
vector 230137  Network.dyn_peer[68]  lookupHopsSig:vector  ETV
vector 230136  Network.dyn_peer[68]  lookupTimeSig:vector  ETV
vector 230139  Network.dyn_peer[69]  lookupHopsSig:vector  ETV
vector 230138  Network.dyn_peer[69]  lookupTimeSig:vector  ETV
vector 230141  Network.dyn_peer[70]  lookupHopsSig:vector  ETV
vector 230140  Network.dyn_peer[70]  lookupTimeSig:vector  ETV
vector 230143  Network.dyn_peer[71]  lookupHopsSig:vector  ETV
vector 230142  Network.dyn_peer[71]  lookupTimeSig:vector  ETV
vector 230145  Network.dyn_peer[72]  lookupHopsSig:vector  ETV
vector 230144  Network.dyn_peer[72]  lookupTimeSig:vector  ETV
vector 230147  Network.dyn_peer[73]  lookupHopsSig:vector  ETV
vector 230146  Network.dyn_peer[73]  lookupTimeSig:vector  ETV
vector 230149  Network.dyn_peer[74]  lookupHopsSig:vector  ETV
vector 230148  Network.dyn_peer[74]  lookupTimeSig:vector  ETV
vector 230151  Network.dyn_peer[75]  lookupHopsSig:vector  ETV
vector 230150  Network.dyn_peer[75]  lookupTimeSig:vector  ETV
vector 230153  Network.dyn_peer[76]  lookupHopsSig:vector  ETV
vector 230152  Network.dyn_peer[76]  lookupTimeSig:vector  ETV
vector 230155  Network.dyn_peer[77]  lookupHopsSig:vector  ETV
vector 230154  Network.dyn_peer[77]  lookupTimeSig:vector  ETV
vector 230157  Network.dyn_peer[78]  lookupHopsSig:vector  ETV
vector 230156  Network.dyn_peer[78]  lookupTimeSig:vector  ETV
vector 230159  Network.dyn_peer[79]  lookupHopsSig:vector  ETV
vector 230158  Network.dyn_peer[79]  lookupTimeSig:vector  ETV
vector 230161  Network.dyn_peer[80]  lookupHopsSig:vector  ETV
vector 230160  Network.dyn_peer[80]  lookupTimeSig:vector  ETV
vector 230163  Network.dyn_peer[81]  lookupHopsSig:vector  ETV
vector 230162  Network.dyn_peer[81]  lookupTimeSig:vector  ETV
vector 230165  Network.dyn_peer[82]  lookupHopsSig:vector  ETV
vector 230164  Network.dyn_peer[82]  lookupTimeSig:vector  ETV
vector 230167  Network.dyn_peer[83]  lookupHopsSig:vector  ETV
vector 230166  Network.dyn_peer[83]  lookupTimeSig:vector  ETV
vector 230169  Network.dyn_peer[84]  lookupHopsSig:vector  ETV
vector 230168  Network.dyn_peer[84]  lookupTimeSig:vector  ETV
vector 230171  Network.dyn_peer[85]  lookupHopsSig:vector  ETV
vector 230170  Network.dyn_peer[85]  lookupTimeSig:vector  ETV
vector 230173  Network.dyn_peer[86]  lookupHopsSig:vector  ETV
vector 230172  Network.dyn_peer[86]  lookupTimeSig:vector  ETV
vector 230175  Network.dyn_peer[87]  lookupHopsSig:vector  ETV
vector 230174  Network.dyn_peer[87]  lookupTimeSig:vector  ETV
vector 230177  Network.dyn_peer[88]  lookupHopsSig:vector  ETV
vector 230176  Network.dyn_peer[88]  lookupTimeSig:vector  ETV
vector 230179  Network.dyn_peer[89]  lookupHopsSig:vector  ETV
vector 230178  Network.dyn_peer[89]  lookupTimeSig:vector  ETV
vector 230181  Network.dyn_peer[90]  lookupHopsSig:vector  ETV
vector 230180  Network.dyn_peer[90]  lookupTimeSig:vector  ETV
vector 230183  Network.dyn_peer[91]  lookupHopsSig:vector  ETV
vector 230182  Network.dyn_peer[91]  lookupTimeSig:vector  ETV
vector 230187  Network.dyn_peer[93]  lookupHopsSig:vector  ETV
vector 230186  Network.dyn_peer[93]  lookupTimeSig:vector  ETV
vector 230185  Network.dyn_peer[92]  lookupHopsSig:vector  ETV
vector 230184  Network.dyn_peer[92]  lookupTimeSig:vector  ETV
vector 230189  Network.dyn_peer[94]  lookupHopsSig:vector  ETV
vector 230188  Network.dyn_peer[94]  lookupTimeSig:vector  ETV
vector 230191  Network.dyn_peer[95]  lookupHopsSig:vector  ETV
vector 230190  Network.dyn_peer[95]  lookupTimeSig:vector  ETV
vector 230193  Network.dyn_peer[96]  lookupHopsSig:vector  ETV
vector 230192  Network.dyn_peer[96]  lookupTimeSig:vector  ETV
vector 230195  Network.dyn_peer[97]  lookupHopsSig:vector  ETV
vector 230194  Network.dyn_peer[97]  lookupTimeSig:vector  ETV
vector 230197  Network.dyn_peer[98]  lookupHopsSig:vector  ETV
vector 230196  Network.dyn_peer[98]  lookupTimeSig:vector  ETV
vector 230199  Network.dyn_peer[99]  lookupHopsSig:vector  ETV
vector 230198  Network.dyn_peer[99]  lookupTimeSig:vector  ETV
vector 230203  Network.dyn_peer[101]  lookupHopsSig:vector  ETV
vector 230202  Network.dyn_peer[101]  lookupTimeSig:vector  ETV
vector 230201  Network.dyn_peer[100]  lookupHopsSig:vector  ETV
vector 230200  Network.dyn_peer[100]  lookupTimeSig:vector  ETV
vector 230205  Network.dyn_peer[102]  lookupHopsSig:vector  ETV
vector 230204  Network.dyn_peer[102]  lookupTimeSig:vector  ETV
vector 230207  Network.dyn_peer[103]  lookupHopsSig:vector  ETV
vector 230206  Network.dyn_peer[103]  lookupTimeSig:vector  ETV
vector 230209  Network.dyn_peer[104]  lookupHopsSig:vector  ETV
vector 230208  Network.dyn_peer[104]  lookupTimeSig:vector  ETV
vector 230213  Network.dyn_peer[106]  lookupHopsSig:vector  ETV
vector 230212  Network.dyn_peer[106]  lookupTimeSig:vector  ETV
vector 230211  Network.dyn_peer[105]  lookupHopsSig:vector  ETV
vector 230210  Network.dyn_peer[105]  lookupTimeSig:vector  ETV
vector 230215  Network.dyn_peer[107]  lookupHopsSig:vector  ETV
vector 230214  Network.dyn_peer[107]  lookupTimeSig:vector  ETV
vector 230217  Network.dyn_peer[108]  lookupHopsSig:vector  ETV
vector 230216  Network.dyn_peer[108]  lookupTimeSig:vector  ETV
vector 230219  Network.dyn_peer[109]  lookupHopsSig:vector  ETV
vector 230218  Network.dyn_peer[109]  lookupTimeSig:vector  ETV
vector 230221  Network.dyn_peer[110]  lookupHopsSig:vector  ETV
vector 230220  Network.dyn_peer[110]  lookupTimeSig:vector  ETV
vector 230223  Network.dyn_peer[111]  lookupHopsSig:vector  ETV
vector 230222  Network.dyn_peer[111]  lookupTimeSig:vector  ETV
vector 230225  Network.dyn_peer[112]  lookupHopsSig:vector  ETV
vector 230224  Network.dyn_peer[112]  lookupTimeSig:vector  ETV
vector 230227  Network.dyn_peer[113]  lookupHopsSig:vector  ETV
vector 230226  Network.dyn_peer[113]  lookupTimeSig:vector  ETV
vector 230229  Network.dyn_peer[114]  lookupHopsSig:vector  ETV
vector 230228  Network.dyn_peer[114]  lookupTimeSig:vector  ETV
vector 230231  Network.dyn_peer[115]  lookupHopsSig:vector  ETV
vector 230230  Network.dyn_peer[115]  lookupTimeSig:vector  ETV
vector 230233  Network.dyn_peer[116]  lookupHopsSig:vector  ETV
vector 230232  Network.dyn_peer[116]  lookupTimeSig:vector  ETV
vector 230235  Network.dyn_peer[117]  lookupHopsSig:vector  ETV
vector 230234  Network.dyn_peer[117]  lookupTimeSig:vector  ETV
vector 230237  Network.dyn_peer[118]  lookupHopsSig:vector  ETV
vector 230236  Network.dyn_peer[118]  lookupTimeSig:vector  ETV
vector 230239  Network.dyn_peer[119]  lookupHopsSig:vector  ETV
vector 230238  Network.dyn_peer[119]  lookupTimeSig:vector  ETV
vector 230241  Network.dyn_peer[120]  lookupHopsSig:vector  ETV
vector 230240  Network.dyn_peer[120]  lookupTimeSig:vector  ETV
vector 230243  Network.dyn_peer[121]  lookupHopsSig:vector  ETV
vector 230242  Network.dyn_peer[121]  lookupTimeSig:vector  ETV
vector 230245  Network.dyn_peer[122]  lookupHopsSig:vector  ETV
vector 230244  Network.dyn_peer[122]  lookupTimeSig:vector  ETV
vector 230247  Network.dyn_peer[123]  lookupHopsSig:vector  ETV
vector 230246  Network.dyn_peer[123]  lookupTimeSig:vector  ETV
vector 230249  Network.dyn_peer[124]  lookupHopsSig:vector  ETV
vector 230248  Network.dyn_peer[124]  lookupTimeSig:vector  ETV
vector 230251  Network.dyn_peer[125]  lookupHopsSig:vector  ETV
vector 230250  Network.dyn_peer[125]  lookupTimeSig:vector  ETV
vector 230253  Network.dyn_peer[126]  lookupHopsSig:vector  ETV
vector 230252  Network.dyn_peer[126]  lookupTimeSig:vector  ETV
vector 230255  Network.dyn_peer[127]  lookupHopsSig:vector  ETV
vector 230254  Network.dyn_peer[127]  lookupTimeSig:vector  ETV
vector 230257  Network.dyn_peer[128]  lookupHopsSig:vector  ETV
vector 230256  Network.dyn_peer[128]  lookupTimeSig:vector  ETV
vector 230259  Network.dyn_peer[129]  lookupHopsSig:vector  ETV
vector 230258  Network.dyn_peer[129]  lookupTimeSig:vector  ETV
vector 230261  Network.dyn_peer[130]  lookupHopsSig:vector  ETV
vector 230260  Network.dyn_peer[130]  lookupTimeSig:vector  ETV
vector 230263  Network.dyn_peer[131]  lookupHopsSig:vector  ETV
vector 230262  Network.dyn_peer[131]  lookupTimeSig:vector  ETV
vector 230265  Network.dyn_peer[132]  lookupHopsSig:vector  ETV
vector 230264  Network.dyn_peer[132]  lookupTimeSig:vector  ETV
vector 230267  Network.dyn_peer[133]  lookupHopsSig:vector  ETV
vector 230266  Network.dyn_peer[133]  lookupTimeSig:vector  ETV
vector 230269  Network.dyn_peer[134]  lookupHopsSig:vector  ETV
vector 230268  Network.dyn_peer[134]  lookupTimeSig:vector  ETV
vector 230271  Network.dyn_peer[135]  lookupHopsSig:vector  ETV
vector 230270  Network.dyn_peer[135]  lookupTimeSig:vector  ETV
vector 230273  Network.dyn_peer[136]  lookupHopsSig:vector  ETV
vector 230272  Network.dyn_peer[136]  lookupTimeSig:vector  ETV
vector 230275  Network.dyn_peer[137]  lookupHopsSig:vector  ETV
vector 230274  Network.dyn_peer[137]  lookupTimeSig:vector  ETV
vector 230277  Network.dyn_peer[138]  lookupHopsSig:vector  ETV
vector 230276  Network.dyn_peer[138]  lookupTimeSig:vector  ETV
vector 230279  Network.dyn_peer[139]  lookupHopsSig:vector  ETV
vector 230278  Network.dyn_peer[139]  lookupTimeSig:vector  ETV
vector 230281  Network.dyn_peer[140]  lookupHopsSig:vector  ETV
vector 230280  Network.dyn_peer[140]  lookupTimeSig:vector  ETV
vector 230283  Network.dyn_peer[141]  lookupHopsSig:vector  ETV
vector 230282  Network.dyn_peer[141]  lookupTimeSig:vector  ETV
vector 230285  Network.dyn_peer[142]  lookupHopsSig:vector  ETV
vector 230284  Network.dyn_peer[142]  lookupTimeSig:vector  ETV
vector 230287  Network.dyn_peer[143]  lookupHopsSig:vector  ETV
vector 230286  Network.dyn_peer[143]  lookupTimeSig:vector  ETV
vector 230289  Network.dyn_peer[144]  lookupHopsSig:vector  ETV
vector 230288  Network.dyn_peer[144]  lookupTimeSig:vector  ETV
vector 230291  Network.dyn_peer[145]  lookupHopsSig:vector  ETV
vector 230290  Network.dyn_peer[145]  lookupTimeSig:vector  ETV
vector 230293  Network.dyn_peer[146]  lookupHopsSig:vector  ETV
vector 230292  Network.dyn_peer[146]  lookupTimeSig:vector  ETV
vector 230295  Network.dyn_peer[147]  lookupHopsSig:vector  ETV
vector 230294  Network.dyn_peer[147]  lookupTimeSig:vector  ETV
vector 230297  Network.dyn_peer[148]  lookupHopsSig:vector  ETV
vector 230296  Network.dyn_peer[148]  lookupTimeSig:vector  ETV
vector 230299  Network.dyn_peer[149]  lookupHopsSig:vector  ETV
vector 230298  Network.dyn_peer[149]  lookupTimeSig:vector  ETV
vector 230301  Network.dyn_peer[150]  lookupHopsSig:vector  ETV
vector 230300  Network.dyn_peer[150]  lookupTimeSig:vector  ETV
vector 230303  Network.dyn_peer[151]  lookupHopsSig:vector  ETV
vector 230302  Network.dyn_peer[151]  lookupTimeSig:vector  ETV
vector 230305  Network.dyn_peer[152]  lookupHopsSig:vector  ETV
vector 230304  Network.dyn_peer[152]  lookupTimeSig:vector  ETV
vector 230307  Network.dyn_peer[153]  lookupHopsSig:vector  ETV
vector 230306  Network.dyn_peer[153]  lookupTimeSig:vector  ETV
vector 230309  Network.dyn_peer[154]  lookupHopsSig:vector  ETV
vector 230308  Network.dyn_peer[154]  lookupTimeSig:vector  ETV
vector 230313  Network.dyn_peer[156]  lookupHopsSig:vector  ETV
vector 230312  Network.dyn_peer[156]  lookupTimeSig:vector  ETV
vector 230311  Network.dyn_peer[155]  lookupHopsSig:vector  ETV
vector 230310  Network.dyn_peer[155]  lookupTimeSig:vector  ETV
vector 230315  Network.dyn_peer[157]  lookupHopsSig:vector  ETV
vector 230314  Network.dyn_peer[157]  lookupTimeSig:vector  ETV
vector 230317  Network.dyn_peer[158]  lookupHopsSig:vector  ETV
vector 230316  Network.dyn_peer[158]  lookupTimeSig:vector  ETV
vector 230319  Network.dyn_peer[159]  lookupHopsSig:vector  ETV
vector 230318  Network.dyn_peer[159]  lookupTimeSig:vector  ETV
vector 230321  Network.dyn_peer[160]  lookupHopsSig:vector  ETV
vector 230320  Network.dyn_peer[160]  lookupTimeSig:vector  ETV
vector 230323  Network.dyn_peer[161]  lookupHopsSig:vector  ETV
vector 230322  Network.dyn_peer[161]  lookupTimeSig:vector  ETV
vector 230325  Network.dyn_peer[162]  lookupHopsSig:vector  ETV
vector 230324  Network.dyn_peer[162]  lookupTimeSig:vector  ETV
vector 230327  Network.dyn_peer[163]  lookupHopsSig:vector  ETV
vector 230326  Network.dyn_peer[163]  lookupTimeSig:vector  ETV
vector 230329  Network.dyn_peer[164]  lookupHopsSig:vector  ETV
vector 230328  Network.dyn_peer[164]  lookupTimeSig:vector  ETV
vector 230331  Network.dyn_peer[165]  lookupHopsSig:vector  ETV
vector 230330  Network.dyn_peer[165]  lookupTimeSig:vector  ETV
vector 230333  Network.dyn_peer[166]  lookupHopsSig:vector  ETV
vector 230332  Network.dyn_peer[166]  lookupTimeSig:vector  ETV
vector 230335  Network.dyn_peer[167]  lookupHopsSig:vector  ETV
vector 230334  Network.dyn_peer[167]  lookupTimeSig:vector  ETV
vector 230337  Network.dyn_peer[168]  lookupHopsSig:vector  ETV
vector 230336  Network.dyn_peer[168]  lookupTimeSig:vector  ETV
vector 230339  Network.dyn_peer[169]  lookupHopsSig:vector  ETV
vector 230338  Network.dyn_peer[169]  lookupTimeSig:vector  ETV
vector 230341  Network.dyn_peer[170]  lookupHopsSig:vector  ETV
vector 230340  Network.dyn_peer[170]  lookupTimeSig:vector  ETV
vector 230343  Network.dyn_peer[171]  lookupHopsSig:vector  ETV
vector 230342  Network.dyn_peer[171]  lookupTimeSig:vector  ETV
vector 230345  Network.dyn_peer[172]  lookupHopsSig:vector  ETV
vector 230344  Network.dyn_peer[172]  lookupTimeSig:vector  ETV
vector 230347  Network.dyn_peer[173]  lookupHopsSig:vector  ETV
vector 230346  Network.dyn_peer[173]  lookupTimeSig:vector  ETV
vector 230349  Network.dyn_peer[174]  lookupHopsSig:vector  ETV
vector 230348  Network.dyn_peer[174]  lookupTimeSig:vector  ETV
vector 230351  Network.dyn_peer[175]  lookupHopsSig:vector  ETV
vector 230350  Network.dyn_peer[175]  lookupTimeSig:vector  ETV
vector 230353  Network.dyn_peer[176]  lookupHopsSig:vector  ETV
vector 230352  Network.dyn_peer[176]  lookupTimeSig:vector  ETV
vector 230355  Network.dyn_peer[177]  lookupHopsSig:vector  ETV
vector 230354  Network.dyn_peer[177]  lookupTimeSig:vector  ETV
vector 230357  Network.dyn_peer[178]  lookupHopsSig:vector  ETV
vector 230356  Network.dyn_peer[178]  lookupTimeSig:vector  ETV
vector 230359  Network.dyn_peer[179]  lookupHopsSig:vector  ETV
vector 230358  Network.dyn_peer[179]  lookupTimeSig:vector  ETV
vector 230361  Network.dyn_peer[180]  lookupHopsSig:vector  ETV
vector 230360  Network.dyn_peer[180]  lookupTimeSig:vector  ETV
vector 230363  Network.dyn_peer[181]  lookupHopsSig:vector  ETV
vector 230362  Network.dyn_peer[181]  lookupTimeSig:vector  ETV
vector 230365  Network.dyn_peer[182]  lookupHopsSig:vector  ETV
vector 230364  Network.dyn_peer[182]  lookupTimeSig:vector  ETV
vector 230367  Network.dyn_peer[183]  lookupHopsSig:vector  ETV
vector 230366  Network.dyn_peer[183]  lookupTimeSig:vector  ETV
vector 230369  Network.dyn_peer[184]  lookupHopsSig:vector  ETV
vector 230368  Network.dyn_peer[184]  lookupTimeSig:vector  ETV
vector 230371  Network.dyn_peer[185]  lookupHopsSig:vector  ETV
vector 230370  Network.dyn_peer[185]  lookupTimeSig:vector  ETV
vector 230373  Network.dyn_peer[186]  lookupHopsSig:vector  ETV
vector 230372  Network.dyn_peer[186]  lookupTimeSig:vector  ETV
vector 230375  Network.dyn_peer[187]  lookupHopsSig:vector  ETV
vector 230374  Network.dyn_peer[187]  lookupTimeSig:vector  ETV
vector 230377  Network.dyn_peer[188]  lookupHopsSig:vector  ETV
vector 230376  Network.dyn_peer[188]  lookupTimeSig:vector  ETV
vector 230379  Network.dyn_peer[189]  lookupHopsSig:vector  ETV
vector 230378  Network.dyn_peer[189]  lookupTimeSig:vector  ETV
vector 230381  Network.dyn_peer[190]  lookupHopsSig:vector  ETV
vector 230380  Network.dyn_peer[190]  lookupTimeSig:vector  ETV
vector 230383  Network.dyn_peer[191]  lookupHopsSig:vector  ETV
vector 230382  Network.dyn_peer[191]  lookupTimeSig:vector  ETV
vector 230385  Network.dyn_peer[192]  lookupHopsSig:vector  ETV
vector 230384  Network.dyn_peer[192]  lookupTimeSig:vector  ETV
vector 230387  Network.dyn_peer[193]  lookupHopsSig:vector  ETV
vector 230386  Network.dyn_peer[193]  lookupTimeSig:vector  ETV
vector 230389  Network.dyn_peer[194]  lookupHopsSig:vector  ETV
vector 230388  Network.dyn_peer[194]  lookupTimeSig:vector  ETV
vector 230391  Network.dyn_peer[195]  lookupHopsSig:vector  ETV
vector 230390  Network.dyn_peer[195]  lookupTimeSig:vector  ETV
vector 230393  Network.dyn_peer[196]  lookupHopsSig:vector  ETV
vector 230392  Network.dyn_peer[196]  lookupTimeSig:vector  ETV
vector 230395  Network.dyn_peer[197]  lookupHopsSig:vector  ETV
vector 230394  Network.dyn_peer[197]  lookupTimeSig:vector  ETV
vector 230397  Network.dyn_peer[198]  lookupHopsSig:vector  ETV
vector 230396  Network.dyn_peer[198]  lookupTimeSig:vector  ETV
vector 230399  Network.dyn_peer[199]  lookupHopsSig:vector  ETV
vector 230398  Network.dyn_peer[199]  lookupTimeSig:vector  ETV
vector 230401  Network.dyn_peer[200]  lookupHopsSig:vector  ETV
vector 230400  Network.dyn_peer[200]  lookupTimeSig:vector  ETV
vector 230403  Network.dyn_peer[201]  lookupHopsSig:vector  ETV
vector 230402  Network.dyn_peer[201]  lookupTimeSig:vector  ETV
vector 230405  Network.dyn_peer[202]  lookupHopsSig:vector  ETV
vector 230404  Network.dyn_peer[202]  lookupTimeSig:vector  ETV
vector 230407  Network.dyn_peer[203]  lookupHopsSig:vector  ETV
vector 230406  Network.dyn_peer[203]  lookupTimeSig:vector  ETV
vector 230409  Network.dyn_peer[204]  lookupHopsSig:vector  ETV
vector 230408  Network.dyn_peer[204]  lookupTimeSig:vector  ETV
vector 230411  Network.dyn_peer[205]  lookupHopsSig:vector  ETV
vector 230410  Network.dyn_peer[205]  lookupTimeSig:vector  ETV
vector 230413  Network.dyn_peer[206]  lookupHopsSig:vector  ETV
vector 230412  Network.dyn_peer[206]  lookupTimeSig:vector  ETV
vector 230415  Network.dyn_peer[207]  lookupHopsSig:vector  ETV
vector 230414  Network.dyn_peer[207]  lookupTimeSig:vector  ETV
vector 230417  Network.dyn_peer[208]  lookupHopsSig:vector  ETV
vector 230416  Network.dyn_peer[208]  lookupTimeSig:vector  ETV
vector 230421  Network.dyn_peer[210]  lookupHopsSig:vector  ETV
vector 230420  Network.dyn_peer[210]  lookupTimeSig:vector  ETV
vector 230419  Network.dyn_peer[209]  lookupHopsSig:vector  ETV
vector 230418  Network.dyn_peer[209]  lookupTimeSig:vector  ETV
vector 230423  Network.dyn_peer[211]  lookupHopsSig:vector  ETV
vector 230422  Network.dyn_peer[211]  lookupTimeSig:vector  ETV
vector 230425  Network.dyn_peer[212]  lookupHopsSig:vector  ETV
vector 230424  Network.dyn_peer[212]  lookupTimeSig:vector  ETV
vector 230427  Network.dyn_peer[213]  lookupHopsSig:vector  ETV
vector 230426  Network.dyn_peer[213]  lookupTimeSig:vector  ETV
vector 230429  Network.dyn_peer[214]  lookupHopsSig:vector  ETV
vector 230428  Network.dyn_peer[214]  lookupTimeSig:vector  ETV
vector 230431  Network.dyn_peer[215]  lookupHopsSig:vector  ETV
vector 230430  Network.dyn_peer[215]  lookupTimeSig:vector  ETV
vector 230433  Network.dyn_peer[216]  lookupHopsSig:vector  ETV
vector 230432  Network.dyn_peer[216]  lookupTimeSig:vector  ETV
vector 230435  Network.dyn_peer[217]  lookupHopsSig:vector  ETV
vector 230434  Network.dyn_peer[217]  lookupTimeSig:vector  ETV
vector 230437  Network.dyn_peer[218]  lookupHopsSig:vector  ETV
vector 230436  Network.dyn_peer[218]  lookupTimeSig:vector  ETV
vector 230441  Network.dyn_peer[220]  lookupHopsSig:vector  ETV
vector 230440  Network.dyn_peer[220]  lookupTimeSig:vector  ETV
vector 230439  Network.dyn_peer[219]  lookupHopsSig:vector  ETV
vector 230438  Network.dyn_peer[219]  lookupTimeSig:vector  ETV
vector 230443  Network.dyn_peer[221]  lookupHopsSig:vector  ETV
vector 230442  Network.dyn_peer[221]  lookupTimeSig:vector  ETV
vector 230445  Network.dyn_peer[222]  lookupHopsSig:vector  ETV
vector 230444  Network.dyn_peer[222]  lookupTimeSig:vector  ETV
vector 230447  Network.dyn_peer[223]  lookupHopsSig:vector  ETV
vector 230446  Network.dyn_peer[223]  lookupTimeSig:vector  ETV
vector 230449  Network.dyn_peer[224]  lookupHopsSig:vector  ETV
vector 230448  Network.dyn_peer[224]  lookupTimeSig:vector  ETV
vector 230451  Network.dyn_peer[225]  lookupHopsSig:vector  ETV
vector 230450  Network.dyn_peer[225]  lookupTimeSig:vector  ETV
vector 230453  Network.dyn_peer[226]  lookupHopsSig:vector  ETV
vector 230452  Network.dyn_peer[226]  lookupTimeSig:vector  ETV
vector 230457  Network.dyn_peer[228]  lookupHopsSig:vector  ETV
vector 230456  Network.dyn_peer[228]  lookupTimeSig:vector  ETV
vector 230455  Network.dyn_peer[227]  lookupHopsSig:vector  ETV
vector 230454  Network.dyn_peer[227]  lookupTimeSig:vector  ETV
vector 230459  Network.dyn_peer[229]  lookupHopsSig:vector  ETV
vector 230458  Network.dyn_peer[229]  lookupTimeSig:vector  ETV
vector 230463  Network.dyn_peer[231]  lookupHopsSig:vector  ETV
vector 230462  Network.dyn_peer[231]  lookupTimeSig:vector  ETV
vector 230461  Network.dyn_peer[230]  lookupHopsSig:vector  ETV
vector 230460  Network.dyn_peer[230]  lookupTimeSig:vector  ETV
vector 230465  Network.dyn_peer[232]  lookupHopsSig:vector  ETV
vector 230464  Network.dyn_peer[232]  lookupTimeSig:vector  ETV