version 2
run Stability-97-20130521-22:30:06-23591
attr configname Stability
attr datetime 20130521-22:30:06
attr experiment Stability
attr inifile omnetpp.ini
attr iterationvars $0=1
attr iterationvars2 "$0=1, $repetition=7"
attr measurement $0=1
attr network Network
attr processid 23591
attr repetition 7
attr replication #7
attr resultdir results
attr runnumber 97
attr seedset 97

vector 194001  Network.dyn_peer[0]  lookupHopsSig:vector  ETV
vector 194000  Network.dyn_peer[0]  lookupTimeSig:vector  ETV
vector 194003  Network.dyn_peer[1]  lookupHopsSig:vector  ETV
vector 194002  Network.dyn_peer[1]  lookupTimeSig:vector  ETV
vector 194005  Network.dyn_peer[2]  lookupHopsSig:vector  ETV
vector 194004  Network.dyn_peer[2]  lookupTimeSig:vector  ETV
vector 194007  Network.dyn_peer[3]  lookupHopsSig:vector  ETV
vector 194006  Network.dyn_peer[3]  lookupTimeSig:vector  ETV
vector 194009  Network.dyn_peer[4]  lookupHopsSig:vector  ETV
vector 194008  Network.dyn_peer[4]  lookupTimeSig:vector  ETV
vector 194011  Network.dyn_peer[5]  lookupHopsSig:vector  ETV
vector 194010  Network.dyn_peer[5]  lookupTimeSig:vector  ETV
vector 194013  Network.dyn_peer[6]  lookupHopsSig:vector  ETV
vector 194012  Network.dyn_peer[6]  lookupTimeSig:vector  ETV
vector 194015  Network.dyn_peer[7]  lookupHopsSig:vector  ETV
vector 194014  Network.dyn_peer[7]  lookupTimeSig:vector  ETV
vector 194017  Network.dyn_peer[8]  lookupHopsSig:vector  ETV
vector 194016  Network.dyn_peer[8]  lookupTimeSig:vector  ETV
vector 194019  Network.dyn_peer[9]  lookupHopsSig:vector  ETV
vector 194018  Network.dyn_peer[9]  lookupTimeSig:vector  ETV
vector 194021  Network.dyn_peer[10]  lookupHopsSig:vector  ETV
vector 194020  Network.dyn_peer[10]  lookupTimeSig:vector  ETV
vector 194023  Network.dyn_peer[11]  lookupHopsSig:vector  ETV
vector 194022  Network.dyn_peer[11]  lookupTimeSig:vector  ETV
vector 194025  Network.dyn_peer[12]  lookupHopsSig:vector  ETV
vector 194024  Network.dyn_peer[12]  lookupTimeSig:vector  ETV
vector 194027  Network.dyn_peer[13]  lookupHopsSig:vector  ETV
vector 194026  Network.dyn_peer[13]  lookupTimeSig:vector  ETV
vector 194029  Network.dyn_peer[14]  lookupHopsSig:vector  ETV
vector 194028  Network.dyn_peer[14]  lookupTimeSig:vector  ETV
vector 194031  Network.dyn_peer[15]  lookupHopsSig:vector  ETV
vector 194030  Network.dyn_peer[15]  lookupTimeSig:vector  ETV
vector 194033  Network.dyn_peer[16]  lookupHopsSig:vector  ETV
vector 194032  Network.dyn_peer[16]  lookupTimeSig:vector  ETV
vector 194035  Network.dyn_peer[17]  lookupHopsSig:vector  ETV
vector 194034  Network.dyn_peer[17]  lookupTimeSig:vector  ETV
vector 194037  Network.dyn_peer[18]  lookupHopsSig:vector  ETV
vector 194036  Network.dyn_peer[18]  lookupTimeSig:vector  ETV
vector 194039  Network.dyn_peer[19]  lookupHopsSig:vector  ETV
vector 194038  Network.dyn_peer[19]  lookupTimeSig:vector  ETV
vector 194041  Network.dyn_peer[20]  lookupHopsSig:vector  ETV
vector 194040  Network.dyn_peer[20]  lookupTimeSig:vector  ETV
vector 194043  Network.dyn_peer[21]  lookupHopsSig:vector  ETV
vector 194042  Network.dyn_peer[21]  lookupTimeSig:vector  ETV
vector 194045  Network.dyn_peer[22]  lookupHopsSig:vector  ETV
vector 194044  Network.dyn_peer[22]  lookupTimeSig:vector  ETV
vector 194047  Network.dyn_peer[23]  lookupHopsSig:vector  ETV
vector 194046  Network.dyn_peer[23]  lookupTimeSig:vector  ETV
vector 194049  Network.dyn_peer[24]  lookupHopsSig:vector  ETV
vector 194048  Network.dyn_peer[24]  lookupTimeSig:vector  ETV
vector 194051  Network.dyn_peer[25]  lookupHopsSig:vector  ETV
vector 194050  Network.dyn_peer[25]  lookupTimeSig:vector  ETV
vector 194053  Network.dyn_peer[26]  lookupHopsSig:vector  ETV
vector 194052  Network.dyn_peer[26]  lookupTimeSig:vector  ETV
vector 194055  Network.dyn_peer[27]  lookupHopsSig:vector  ETV
vector 194054  Network.dyn_peer[27]  lookupTimeSig:vector  ETV
vector 194057  Network.dyn_peer[28]  lookupHopsSig:vector  ETV
vector 194056  Network.dyn_peer[28]  lookupTimeSig:vector  ETV
vector 194059  Network.dyn_peer[29]  lookupHopsSig:vector  ETV
vector 194058  Network.dyn_peer[29]  lookupTimeSig:vector  ETV
vector 194061  Network.dyn_peer[30]  lookupHopsSig:vector  ETV
vector 194060  Network.dyn_peer[30]  lookupTimeSig:vector  ETV
vector 194063  Network.dyn_peer[31]  lookupHopsSig:vector  ETV
vector 194062  Network.dyn_peer[31]  lookupTimeSig:vector  ETV
vector 194065  Network.dyn_peer[32]  lookupHopsSig:vector  ETV
vector 194064  Network.dyn_peer[32]  lookupTimeSig:vector  ETV
vector 194067  Network.dyn_peer[33]  lookupHopsSig:vector  ETV
vector 194066  Network.dyn_peer[33]  lookupTimeSig:vector  ETV
vector 194069  Network.dyn_peer[34]  lookupHopsSig:vector  ETV
vector 194068  Network.dyn_peer[34]  lookupTimeSig:vector  ETV
vector 194071  Network.dyn_peer[35]  lookupHopsSig:vector  ETV
vector 194070  Network.dyn_peer[35]  lookupTimeSig:vector  ETV
vector 194073  Network.dyn_peer[36]  lookupHopsSig:vector  ETV
vector 194072  Network.dyn_peer[36]  lookupTimeSig:vector  ETV
vector 194075  Network.dyn_peer[37]  lookupHopsSig:vector  ETV
vector 194074  Network.dyn_peer[37]  lookupTimeSig:vector  ETV
vector 194077  Network.dyn_peer[38]  lookupHopsSig:vector  ETV
vector 194076  Network.dyn_peer[38]  lookupTimeSig:vector  ETV
vector 194079  Network.dyn_peer[39]  lookupHopsSig:vector  ETV
vector 194078  Network.dyn_peer[39]  lookupTimeSig:vector  ETV
vector 194081  Network.dyn_peer[40]  lookupHopsSig:vector  ETV
vector 194080  Network.dyn_peer[40]  lookupTimeSig:vector  ETV
vector 194083  Network.dyn_peer[41]  lookupHopsSig:vector  ETV
vector 194082  Network.dyn_peer[41]  lookupTimeSig:vector  ETV
vector 194085  Network.dyn_peer[42]  lookupHopsSig:vector  ETV
vector 194084  Network.dyn_peer[42]  lookupTimeSig:vector  ETV
vector 194087  Network.dyn_peer[43]  lookupHopsSig:vector  ETV
vector 194086  Network.dyn_peer[43]  lookupTimeSig:vector  ETV
vector 194089  Network.dyn_peer[44]  lookupHopsSig:vector  ETV
vector 194088  Network.dyn_peer[44]  lookupTimeSig:vector  ETV
vector 194091  Network.dyn_peer[45]  lookupHopsSig:vector  ETV
vector 194090  Network.dyn_peer[45]  lookupTimeSig:vector  ETV
vector 194093  Network.dyn_peer[46]  lookupHopsSig:vector  ETV
vector 194092  Network.dyn_peer[46]  lookupTimeSig:vector  ETV
vector 194095  Network.dyn_peer[47]  lookupHopsSig:vector  ETV
vector 194094  Network.dyn_peer[47]  lookupTimeSig:vector  ETV
vector 194097  Network.dyn_peer[48]  lookupHopsSig:vector  ETV
vector 194096  Network.dyn_peer[48]  lookupTimeSig:vector  ETV
vector 194099  Network.dyn_peer[49]  lookupHopsSig:vector  ETV
vector 194098  Network.dyn_peer[49]  lookupTimeSig:vector  ETV
vector 194101  Network.dyn_peer[50]  lookupHopsSig:vector  ETV
vector 194100  Network.dyn_peer[50]  lookupTimeSig:vector  ETV
vector 194103  Network.dyn_peer[51]  lookupHopsSig:vector  ETV
vector 194102  Network.dyn_peer[51]  lookupTimeSig:vector  ETV
vector 194105  Network.dyn_peer[52]  lookupHopsSig:vector  ETV
vector 194104  Network.dyn_peer[52]  lookupTimeSig:vector  ETV
vector 194107  Network.dyn_peer[53]  lookupHopsSig:vector  ETV
vector 194106  Network.dyn_peer[53]  lookupTimeSig:vector  ETV
vector 194109  Network.dyn_peer[54]  lookupHopsSig:vector  ETV
vector 194108  Network.dyn_peer[54]  lookupTimeSig:vector  ETV
vector 194111  Network.dyn_peer[55]  lookupHopsSig:vector  ETV
vector 194110  Network.dyn_peer[55]  lookupTimeSig:vector  ETV
vector 194113  Network.dyn_peer[56]  lookupHopsSig:vector  ETV
vector 194112  Network.dyn_peer[56]  lookupTimeSig:vector  ETV
vector 194115  Network.dyn_peer[57]  lookupHopsSig:vector  ETV
vector 194114  Network.dyn_peer[57]  lookupTimeSig:vector  ETV
vector 194117  Network.dyn_peer[58]  lookupHopsSig:vector  ETV
vector 194116  Network.dyn_peer[58]  lookupTimeSig:vector  ETV
vector 194119  Network.dyn_peer[59]  lookupHopsSig:vector  ETV
vector 194118  Network.dyn_peer[59]  lookupTimeSig:vector  ETV
vector 194121  Network.dyn_peer[60]  lookupHopsSig:vector  ETV
vector 194120  Network.dyn_peer[60]  lookupTimeSig:vector  ETV
vector 194123  Network.dyn_peer[61]  lookupHopsSig:vector  ETV
vector 194122  Network.dyn_peer[61]  lookupTimeSig:vector  ETV
vector 194125  Network.dyn_peer[62]  lookupHopsSig:vector  ETV
vector 194124  Network.dyn_peer[62]  lookupTimeSig:vector  ETV
vector 194127  Network.dyn_peer[63]  lookupHopsSig:vector  ETV
vector 194126  Network.dyn_peer[63]  lookupTimeSig:vector  ETV
vector 194129  Network.dyn_peer[64]  lookupHopsSig:vector  ETV
vector 194128  Network.dyn_peer[64]  lookupTimeSig:vector  ETV
vector 194131  Network.dyn_peer[65]  lookupHopsSig:vector  ETV
vector 194130  Network.dyn_peer[65]  lookupTimeSig:vector  ETV
vector 194133  Network.dyn_peer[66]  lookupHopsSig:vector  ETV
vector 194132  Network.dyn_peer[66]  lookupTimeSig:vector  ETV
vector 194135  Network.dyn_peer[67]  lookupHopsSig:vector  ETV
vector 194134  Network.dyn_peer[67]  lookupTimeSig:vector  ETV
vector 194137  Network.dyn_peer[68]  lookupHopsSig:vector  ETV
vector 194136  Network.dyn_peer[68]  lookupTimeSig:vector  ETV
vector 194139  Network.dyn_peer[69]  lookupHopsSig:vector  ETV
vector 194138  Network.dyn_peer[69]  lookupTimeSig:vector  ETV
vector 194141  Network.dyn_peer[70]  lookupHopsSig:vector  ETV
vector 194140  Network.dyn_peer[70]  lookupTimeSig:vector  ETV
vector 194143  Network.dyn_peer[71]  lookupHopsSig:vector  ETV
vector 194142  Network.dyn_peer[71]  lookupTimeSig:vector  ETV
vector 194145  Network.dyn_peer[72]  lookupHopsSig:vector  ETV
vector 194144  Network.dyn_peer[72]  lookupTimeSig:vector  ETV
vector 194147  Network.dyn_peer[73]  lookupHopsSig:vector  ETV
vector 194146  Network.dyn_peer[73]  lookupTimeSig:vector  ETV
vector 194149  Network.dyn_peer[74]  lookupHopsSig:vector  ETV
vector 194148  Network.dyn_peer[74]  lookupTimeSig:vector  ETV
vector 194151  Network.dyn_peer[75]  lookupHopsSig:vector  ETV
vector 194150  Network.dyn_peer[75]  lookupTimeSig:vector  ETV
vector 194153  Network.dyn_peer[76]  lookupHopsSig:vector  ETV
vector 194152  Network.dyn_peer[76]  lookupTimeSig:vector  ETV
vector 194155  Network.dyn_peer[77]  lookupHopsSig:vector  ETV
vector 194154  Network.dyn_peer[77]  lookupTimeSig:vector  ETV
vector 194157  Network.dyn_peer[78]  lookupHopsSig:vector  ETV
vector 194156  Network.dyn_peer[78]  lookupTimeSig:vector  ETV
vector 194159  Network.dyn_peer[79]  lookupHopsSig:vector  ETV
vector 194158  Network.dyn_peer[79]  lookupTimeSig:vector  ETV
vector 194161  Network.dyn_peer[80]  lookupHopsSig:vector  ETV
vector 194160  Network.dyn_peer[80]  lookupTimeSig:vector  ETV
vector 194163  Network.dyn_peer[81]  lookupHopsSig:vector  ETV
vector 194162  Network.dyn_peer[81]  lookupTimeSig:vector  ETV
vector 194165  Network.dyn_peer[82]  lookupHopsSig:vector  ETV
vector 194164  Network.dyn_peer[82]  lookupTimeSig:vector  ETV
vector 194167  Network.dyn_peer[83]  lookupHopsSig:vector  ETV
vector 194166  Network.dyn_peer[83]  lookupTimeSig:vector  ETV
vector 194169  Network.dyn_peer[84]  lookupHopsSig:vector  ETV
vector 194168  Network.dyn_peer[84]  lookupTimeSig:vector  ETV
vector 194171  Network.dyn_peer[85]  lookupHopsSig:vector  ETV
vector 194170  Network.dyn_peer[85]  lookupTimeSig:vector  ETV
vector 194173  Network.dyn_peer[86]  lookupHopsSig:vector  ETV
vector 194172  Network.dyn_peer[86]  lookupTimeSig:vector  ETV
vector 194175  Network.dyn_peer[87]  lookupHopsSig:vector  ETV
vector 194174  Network.dyn_peer[87]  lookupTimeSig:vector  ETV
vector 194177  Network.dyn_peer[88]  lookupHopsSig:vector  ETV
vector 194176  Network.dyn_peer[88]  lookupTimeSig:vector  ETV
vector 194179  Network.dyn_peer[89]  lookupHopsSig:vector  ETV
vector 194178  Network.dyn_peer[89]  lookupTimeSig:vector  ETV
vector 194181  Network.dyn_peer[90]  lookupHopsSig:vector  ETV
vector 194180  Network.dyn_peer[90]  lookupTimeSig:vector  ETV
vector 194183  Network.dyn_peer[91]  lookupHopsSig:vector  ETV
vector 194182  Network.dyn_peer[91]  lookupTimeSig:vector  ETV
vector 194185  Network.dyn_peer[92]  lookupHopsSig:vector  ETV
vector 194184  Network.dyn_peer[92]  lookupTimeSig:vector  ETV
vector 194187  Network.dyn_peer[93]  lookupHopsSig:vector  ETV
vector 194186  Network.dyn_peer[93]  lookupTimeSig:vector  ETV
vector 194189  Network.dyn_peer[94]  lookupHopsSig:vector  ETV
vector 194188  Network.dyn_peer[94]  lookupTimeSig:vector  ETV
vector 194191  Network.dyn_peer[95]  lookupHopsSig:vector  ETV
vector 194190  Network.dyn_peer[95]  lookupTimeSig:vector  ETV
vector 194193  Network.dyn_peer[96]  lookupHopsSig:vector  ETV
vector 194192  Network.dyn_peer[96]  lookupTimeSig:vector  ETV
vector 194195  Network.dyn_peer[97]  lookupHopsSig:vector  ETV
vector 194194  Network.dyn_peer[97]  lookupTimeSig:vector  ETV
vector 194197  Network.dyn_peer[98]  lookupHopsSig:vector  ETV
vector 194196  Network.dyn_peer[98]  lookupTimeSig:vector  ETV
vector 194199  Network.dyn_peer[99]  lookupHopsSig:vector  ETV
vector 194198  Network.dyn_peer[99]  lookupTimeSig:vector  ETV
vector 194201  Network.dyn_peer[100]  lookupHopsSig:vector  ETV
vector 194200  Network.dyn_peer[100]  lookupTimeSig:vector  ETV
vector 194205  Network.dyn_peer[102]  lookupHopsSig:vector  ETV
vector 194204  Network.dyn_peer[102]  lookupTimeSig:vector  ETV
vector 194203  Network.dyn_peer[101]  lookupHopsSig:vector  ETV
vector 194202  Network.dyn_peer[101]  lookupTimeSig:vector  ETV
vector 194207  Network.dyn_peer[103]  lookupHopsSig:vector  ETV
vector 194206  Network.dyn_peer[103]  lookupTimeSig:vector  ETV
vector 194209  Network.dyn_peer[104]  lookupHopsSig:vector  ETV
vector 194208  Network.dyn_peer[104]  lookupTimeSig:vector  ETV
vector 194211  Network.dyn_peer[105]  lookupHopsSig:vector  ETV
vector 194210  Network.dyn_peer[105]  lookupTimeSig:vector  ETV
vector 194213  Network.dyn_peer[106]  lookupHopsSig:vector  ETV
vector 194212  Network.dyn_peer[106]  lookupTimeSig:vector  ETV
vector 194215  Network.dyn_peer[107]  lookupHopsSig:vector  ETV
vector 194214  Network.dyn_peer[107]  lookupTimeSig:vector  ETV
vector 194217  Network.dyn_peer[108]  lookupHopsSig:vector  ETV
vector 194216  Network.dyn_peer[108]  lookupTimeSig:vector  ETV
vector 194219  Network.dyn_peer[109]  lookupHopsSig:vector  ETV
vector 194218  Network.dyn_peer[109]  lookupTimeSig:vector  ETV
vector 194221  Network.dyn_peer[110]  lookupHopsSig:vector  ETV
vector 194220  Network.dyn_peer[110]  lookupTimeSig:vector  ETV
vector 194223  Network.dyn_peer[111]  lookupHopsSig:vector  ETV
vector 194222  Network.dyn_peer[111]  lookupTimeSig:vector  ETV
vector 194225  Network.dyn_peer[112]  lookupHopsSig:vector  ETV
vector 194224  Network.dyn_peer[112]  lookupTimeSig:vector  ETV
vector 194227  Network.dyn_peer[113]  lookupHopsSig:vector  ETV
vector 194226  Network.dyn_peer[113]  lookupTimeSig:vector  ETV
vector 194229  Network.dyn_peer[114]  lookupHopsSig:vector  ETV
vector 194228  Network.dyn_peer[114]  lookupTimeSig:vector  ETV
vector 194231  Network.dyn_peer[115]  lookupHopsSig:vector  ETV
vector 194230  Network.dyn_peer[115]  lookupTimeSig:vector  ETV
vector 194233  Network.dyn_peer[116]  lookupHopsSig:vector  ETV
vector 194232  Network.dyn_peer[116]  lookupTimeSig:vector  ETV
vector 194235  Network.dyn_peer[117]  lookupHopsSig:vector  ETV
vector 194234  Network.dyn_peer[117]  lookupTimeSig:vector  ETV
vector 194237  Network.dyn_peer[118]  lookupHopsSig:vector  ETV
vector 194236  Network.dyn_peer[118]  lookupTimeSig:vector  ETV
vector 194239  Network.dyn_peer[119]  lookupHopsSig:vector  ETV
vector 194238  Network.dyn_peer[119]  lookupTimeSig:vector  ETV
vector 194241  Network.dyn_peer[120]  lookupHopsSig:vector  ETV
vector 194240  Network.dyn_peer[120]  lookupTimeSig:vector  ETV
vector 194243  Network.dyn_peer[121]  lookupHopsSig:vector  ETV
vector 194242  Network.dyn_peer[121]  lookupTimeSig:vector  ETV
vector 194245  Network.dyn_peer[122]  lookupHopsSig:vector  ETV
vector 194244  Network.dyn_peer[122]  lookupTimeSig:vector  ETV
vector 194247  Network.dyn_peer[123]  lookupHopsSig:vector  ETV
vector 194246  Network.dyn_peer[123]  lookupTimeSig:vector  ETV
vector 194249  Network.dyn_peer[124]  lookupHopsSig:vector  ETV
vector 194248  Network.dyn_peer[124]  lookupTimeSig:vector  ETV
vector 194251  Network.dyn_peer[125]  lookupHopsSig:vector  ETV
vector 194250  Network.dyn_peer[125]  lookupTimeSig:vector  ETV
vector 194253  Network.dyn_peer[126]  lookupHopsSig:vector  ETV
vector 194252  Network.dyn_peer[126]  lookupTimeSig:vector  ETV
vector 194255  Network.dyn_peer[127]  lookupHopsSig:vector  ETV
vector 194254  Network.dyn_peer[127]  lookupTimeSig:vector  ETV
vector 194257  Network.dyn_peer[128]  lookupHopsSig:vector  ETV
vector 194256  Network.dyn_peer[128]  lookupTimeSig:vector  ETV
vector 194259  Network.dyn_peer[129]  lookupHopsSig:vector  ETV
vector 194258  Network.dyn_peer[129]  lookupTimeSig:vector  ETV
vector 194261  Network.dyn_peer[130]  lookupHopsSig:vector  ETV
vector 194260  Network.dyn_peer[130]  lookupTimeSig:vector  ETV
vector 194263  Network.dyn_peer[131]  lookupHopsSig:vector  ETV
vector 194262  Network.dyn_peer[131]  lookupTimeSig:vector  ETV
vector 194265  Network.dyn_peer[132]  lookupHopsSig:vector  ETV
vector 194264  Network.dyn_peer[132]  lookupTimeSig:vector  ETV
vector 194267  Network.dyn_peer[133]  lookupHopsSig:vector  ETV
vector 194266  Network.dyn_peer[133]  lookupTimeSig:vector  ETV
vector 194269  Network.dyn_peer[134]  lookupHopsSig:vector  ETV
vector 194268  Network.dyn_peer[134]  lookupTimeSig:vector  ETV
vector 194271  Network.dyn_peer[135]  lookupHopsSig:vector  ETV
vector 194270  Network.dyn_peer[135]  lookupTimeSig:vector  ETV
vector 194273  Network.dyn_peer[136]  lookupHopsSig:vector  ETV
vector 194272  Network.dyn_peer[136]  lookupTimeSig:vector  ETV
vector 194275  Network.dyn_peer[137]  lookupHopsSig:vector  ETV
vector 194274  Network.dyn_peer[137]  lookupTimeSig:vector  ETV
vector 194277  Network.dyn_peer[138]  lookupHopsSig:vector  ETV
vector 194276  Network.dyn_peer[138]  lookupTimeSig:vector  ETV
vector 194279  Network.dyn_peer[139]  lookupHopsSig:vector  ETV
vector 194278  Network.dyn_peer[139]  lookupTimeSig:vector  ETV
vector 194281  Network.dyn_peer[140]  lookupHopsSig:vector  ETV
vector 194280  Network.dyn_peer[140]  lookupTimeSig:vector  ETV
vector 194283  Network.dyn_peer[141]  lookupHopsSig:vector  ETV
vector 194282  Network.dyn_peer[141]  lookupTimeSig:vector  ETV
vector 194287  Network.dyn_peer[143]  lookupHopsSig:vector  ETV
vector 194286  Network.dyn_peer[143]  lookupTimeSig:vector  ETV
vector 194285  Network.dyn_peer[142]  lookupHopsSig:vector  ETV
vector 194284  Network.dyn_peer[142]  lookupTimeSig:vector  ETV
vector 194289  Network.dyn_peer[144]  lookupHopsSig:vector  ETV
vector 194288  Network.dyn_peer[144]  lookupTimeSig:vector  ETV
vector 194291  Network.dyn_peer[145]  lookupHopsSig:vector  ETV
vector 194290  Network.dyn_peer[145]  lookupTimeSig:vector  ETV
vector 194293  Network.dyn_peer[146]  lookupHopsSig:vector  ETV
vector 194292  Network.dyn_peer[146]  lookupTimeSig:vector  ETV
vector 194295  Network.dyn_peer[147]  lookupHopsSig:vector  ETV
vector 194294  Network.dyn_peer[147]  lookupTimeSig:vector  ETV
vector 194297  Network.dyn_peer[148]  lookupHopsSig:vector  ETV
vector 194296  Network.dyn_peer[148]  lookupTimeSig:vector  ETV
vector 194299  Network.dyn_peer[149]  lookupHopsSig:vector  ETV
vector 194298  Network.dyn_peer[149]  lookupTimeSig:vector  ETV
vector 194301  Network.dyn_peer[150]  lookupHopsSig:vector  ETV
vector 194300  Network.dyn_peer[150]  lookupTimeSig:vector  ETV
vector 194303  Network.dyn_peer[151]  lookupHopsSig:vector  ETV
vector 194302  Network.dyn_peer[151]  lookupTimeSig:vector  ETV
vector 194305  Network.dyn_peer[152]  lookupHopsSig:vector  ETV
vector 194304  Network.dyn_peer[152]  lookupTimeSig:vector  ETV
vector 194307  Network.dyn_peer[153]  lookupHopsSig:vector  ETV
vector 194306  Network.dyn_peer[153]  lookupTimeSig:vector  ETV
vector 194309  Network.dyn_peer[154]  lookupHopsSig:vector  ETV
vector 194308  Network.dyn_peer[154]  lookupTimeSig:vector  ETV
vector 194311  Network.dyn_peer[155]  lookupHopsSig:vector  ETV
vector 194310  Network.dyn_peer[155]  lookupTimeSig:vector  ETV
vector 194313  Network.dyn_peer[156]  lookupHopsSig:vector  ETV
vector 194312  Network.dyn_peer[156]  lookupTimeSig:vector  ETV
vector 194315  Network.dyn_peer[157]  lookupHopsSig:vector  ETV
vector 194314  Network.dyn_peer[157]  lookupTimeSig:vector  ETV
vector 194317  Network.dyn_peer[158]  lookupHopsSig:vector  ETV
vector 194316  Network.dyn_peer[158]  lookupTimeSig:vector  ETV
vector 194319  Network.dyn_peer[159]  lookupHopsSig:vector  ETV
vector 194318  Network.dyn_peer[159]  lookupTimeSig:vector  ETV
vector 194321  Network.dyn_peer[160]  lookupHopsSig:vector  ETV
vector 194320  Network.dyn_peer[160]  lookupTimeSig:vector  ETV
vector 194323  Network.dyn_peer[161]  lookupHopsSig:vector  ETV
vector 194322  Network.dyn_peer[161]  lookupTimeSig:vector  ETV
vector 194325  Network.dyn_peer[162]  lookupHopsSig:vector  ETV
vector 194324  Network.dyn_peer[162]  lookupTimeSig:vector  ETV
vector 194327  Network.dyn_peer[163]  lookupHopsSig:vector  ETV
vector 194326  Network.dyn_peer[163]  lookupTimeSig:vector  ETV
vector 194329  Network.dyn_peer[164]  lookupHopsSig:vector  ETV
vector 194328  Network.dyn_peer[164]  lookupTimeSig:vector  ETV
vector 194331  Network.dyn_peer[165]  lookupHopsSig:vector  ETV
vector 194330  Network.dyn_peer[165]  lookupTimeSig:vector  ETV
vector 194333  Network.dyn_peer[166]  lookupHopsSig:vector  ETV
vector 194332  Network.dyn_peer[166]  lookupTimeSig:vector  ETV
vector 194335  Network.dyn_peer[167]  lookupHopsSig:vector  ETV
vector 194334  Network.dyn_peer[167]  lookupTimeSig:vector  ETV
vector 194337  Network.dyn_peer[168]  lookupHopsSig:vector  ETV
vector 194336  Network.dyn_peer[168]  lookupTimeSig:vector  ETV
vector 194339  Network.dyn_peer[169]  lookupHopsSig:vector  ETV
vector 194338  Network.dyn_peer[169]  lookupTimeSig:vector  ETV
vector 194343  Network.dyn_peer[171]  lookupHopsSig:vector  ETV
vector 194342  Network.dyn_peer[171]  lookupTimeSig:vector  ETV
vector 194341  Network.dyn_peer[170]  lookupHopsSig:vector  ETV
vector 194340  Network.dyn_peer[170]  lookupTimeSig:vector  ETV
vector 194345  Network.dyn_peer[172]  lookupHopsSig:vector  ETV
vector 194344  Network.dyn_peer[172]  lookupTimeSig:vector  ETV
vector 194347  Network.dyn_peer[173]  lookupHopsSig:vector  ETV
vector 194346  Network.dyn_peer[173]  lookupTimeSig:vector  ETV
vector 194349  Network.dyn_peer[174]  lookupHopsSig:vector  ETV
vector 194348  Network.dyn_peer[174]  lookupTimeSig:vector  ETV
vector 194351  Network.dyn_peer[175]  lookupHopsSig:vector  ETV
vector 194350  Network.dyn_peer[175]  lookupTimeSig:vector  ETV
vector 194353  Network.dyn_peer[176]  lookupHopsSig:vector  ETV
vector 194352  Network.dyn_peer[176]  lookupTimeSig:vector  ETV
vector 194355  Network.dyn_peer[177]  lookupHopsSig:vector  ETV
vector 194354  Network.dyn_peer[177]  lookupTimeSig:vector  ETV
vector 194357  Network.dyn_peer[178]  lookupHopsSig:vector  ETV
vector 194356  Network.dyn_peer[178]  lookupTimeSig:vector  ETV
vector 194359  Network.dyn_peer[179]  lookupHopsSig:vector  ETV
vector 194358  Network.dyn_peer[179]  lookupTimeSig:vector  ETV
vector 194361  Network.dyn_peer[180]  lookupHopsSig:vector  ETV
vector 194360  Network.dyn_peer[180]  lookupTimeSig:vector  ETV
vector 194363  Network.dyn_peer[181]  lookupHopsSig:vector  ETV
vector 194362  Network.dyn_peer[181]  lookupTimeSig:vector  ETV
vector 194365  Network.dyn_peer[182]  lookupHopsSig:vector  ETV
vector 194364  Network.dyn_peer[182]  lookupTimeSig:vector  ETV
vector 194367  Network.dyn_peer[183]  lookupHopsSig:vector  ETV
vector 194366  Network.dyn_peer[183]  lookupTimeSig:vector  ETV
vector 194369  Network.dyn_peer[184]  lookupHopsSig:vector  ETV
vector 194368  Network.dyn_peer[184]  lookupTimeSig:vector  ETV
vector 194371  Network.dyn_peer[185]  lookupHopsSig:vector  ETV
vector 194370  Network.dyn_peer[185]  lookupTimeSig:vector  ETV
vector 194373  Network.dyn_peer[186]  lookupHopsSig:vector  ETV
vector 194372  Network.dyn_peer[186]  lookupTimeSig:vector  ETV
vector 194375  Network.dyn_peer[187]  lookupHopsSig:vector  ETV
vector 194374  Network.dyn_peer[187]  lookupTimeSig:vector  ETV
vector 194377  Network.dyn_peer[188]  lookupHopsSig:vector  ETV
vector 194376  Network.dyn_peer[188]  lookupTimeSig:vector  ETV
vector 194379  Network.dyn_peer[189]  lookupHopsSig:vector  ETV
vector 194378  Network.dyn_peer[189]  lookupTimeSig:vector  ETV
vector 194381  Network.dyn_peer[190]  lookupHopsSig:vector  ETV
vector 194380  Network.dyn_peer[190]  lookupTimeSig:vector  ETV
vector 194383  Network.dyn_peer[191]  lookupHopsSig:vector  ETV
vector 194382  Network.dyn_peer[191]  lookupTimeSig:vector  ETV
vector 194385  Network.dyn_peer[192]  lookupHopsSig:vector  ETV
vector 194384  Network.dyn_peer[192]  lookupTimeSig:vector  ETV
vector 194387  Network.dyn_peer[193]  lookupHopsSig:vector  ETV
vector 194386  Network.dyn_peer[193]  lookupTimeSig:vector  ETV
vector 194389  Network.dyn_peer[194]  lookupHopsSig:vector  ETV
vector 194388  Network.dyn_peer[194]  lookupTimeSig:vector  ETV
vector 194391  Network.dyn_peer[195]  lookupHopsSig:vector  ETV
vector 194390  Network.dyn_peer[195]  lookupTimeSig:vector  ETV
vector 194393  Network.dyn_peer[196]  lookupHopsSig:vector  ETV
vector 194392  Network.dyn_peer[196]  lookupTimeSig:vector  ETV
vector 194395  Network.dyn_peer[197]  lookupHopsSig:vector  ETV
vector 194394  Network.dyn_peer[197]  lookupTimeSig:vector  ETV
vector 194397  Network.dyn_peer[198]  lookupHopsSig:vector  ETV
vector 194396  Network.dyn_peer[198]  lookupTimeSig:vector  ETV
vector 194399  Network.dyn_peer[199]  lookupHopsSig:vector  ETV
vector 194398  Network.dyn_peer[199]  lookupTimeSig:vector  ETV
vector 194401  Network.dyn_peer[200]  lookupHopsSig:vector  ETV
vector 194400  Network.dyn_peer[200]  lookupTimeSig:vector  ETV
vector 194405  Network.dyn_peer[202]  lookupHopsSig:vector  ETV
vector 194404  Network.dyn_peer[202]  lookupTimeSig:vector  ETV
vector 194403  Network.dyn_peer[201]  lookupHopsSig:vector  ETV
vector 194402  Network.dyn_peer[201]  lookupTimeSig:vector  ETV
vector 194407  Network.dyn_peer[203]  lookupHopsSig:vector  ETV
vector 194406  Network.dyn_peer[203]  lookupTimeSig:vector  ETV
vector 194409  Network.dyn_peer[204]  lookupHopsSig:vector  ETV
vector 194408  Network.dyn_peer[204]  lookupTimeSig:vector  ETV
vector 194411  Network.dyn_peer[205]  lookupHopsSig:vector  ETV
vector 194410  Network.dyn_peer[205]  lookupTimeSig:vector  ETV
vector 194413  Network.dyn_peer[206]  lookupHopsSig:vector  ETV
vector 194412  Network.dyn_peer[206]  lookupTimeSig:vector  ETV
vector 194415  Network.dyn_peer[207]  lookupHopsSig:vector  ETV
vector 194414  Network.dyn_peer[207]  lookupTimeSig:vector  ETV
vector 194417  Network.dyn_peer[208]  lookupHopsSig:vector  ETV
vector 194416  Network.dyn_peer[208]  lookupTimeSig:vector  ETV
vector 194419  Network.dyn_peer[209]  lookupHopsSig:vector  ETV
vector 194418  Network.dyn_peer[209]  lookupTimeSig:vector  ETV
vector 194421  Network.dyn_peer[210]  lookupHopsSig:vector  ETV
vector 194420  Network.dyn_peer[210]  lookupTimeSig:vector  ETV
vector 194423  Network.dyn_peer[211]  lookupHopsSig:vector  ETV
vector 194422  Network.dyn_peer[211]  lookupTimeSig:vector  ETV
vector 194425  Network.dyn_peer[212]  lookupHopsSig:vector  ETV
vector 194424  Network.dyn_peer[212]  lookupTimeSig:vector  ETV
vector 194429  Network.dyn_peer[214]  lookupHopsSig:vector  ETV
vector 194428  Network.dyn_peer[214]  lookupTimeSig:vector  ETV
vector 194427  Network.dyn_peer[213]  lookupHopsSig:vector  ETV
vector 194426  Network.dyn_peer[213]  lookupTimeSig:vector  ETV
vector 194431  Network.dyn_peer[215]  lookupHopsSig:vector  ETV
vector 194430  Network.dyn_peer[215]  lookupTimeSig:vector  ETV
vector 194433  Network.dyn_peer[216]  lookupHopsSig:vector  ETV
vector 194432  Network.dyn_peer[216]  lookupTimeSig:vector  ETV
vector 194435  Network.dyn_peer[217]  lookupHopsSig:vector  ETV
vector 194434  Network.dyn_peer[217]  lookupTimeSig:vector  ETV
vector 194437  Network.dyn_peer[218]  lookupHopsSig:vector  ETV
vector 194436  Network.dyn_peer[218]  lookupTimeSig:vector  ETV
vector 194439  Network.dyn_peer[219]  lookupHopsSig:vector  ETV
vector 194438  Network.dyn_peer[219]  lookupTimeSig:vector  ETV
vector 194441  Network.dyn_peer[220]  lookupHopsSig:vector  ETV
vector 194440  Network.dyn_peer[220]  lookupTimeSig:vector  ETV
vector 194443  Network.dyn_peer[221]  lookupHopsSig:vector  ETV
vector 194442  Network.dyn_peer[221]  lookupTimeSig:vector  ETV
vector 194445  Network.dyn_peer[222]  lookupHopsSig:vector  ETV
vector 194444  Network.dyn_peer[222]  lookupTimeSig:vector  ETV
vector 194447  Network.dyn_peer[223]  lookupHopsSig:vector  ETV
vector 194446  Network.dyn_peer[223]  lookupTimeSig:vector  ETV
vector 194449  Network.dyn_peer[224]  lookupHopsSig:vector  ETV
vector 194448  Network.dyn_peer[224]  lookupTimeSig:vector  ETV
vector 194451  Network.dyn_peer[225]  lookupHopsSig:vector  ETV
vector 194450  Network.dyn_peer[225]  lookupTimeSig:vector  ETV
vector 194453  Network.dyn_peer[226]  lookupHopsSig:vector  ETV
vector 194452  Network.dyn_peer[226]  lookupTimeSig:vector  ETV
vector 194455  Network.dyn_peer[227]  lookupHopsSig:vector  ETV
vector 194454  Network.dyn_peer[227]  lookupTimeSig:vector  ETV
vector 194459  Network.dyn_peer[229]  lookupHopsSig:vector  ETV
vector 194458  Network.dyn_peer[229]  lookupTimeSig:vector  ETV
vector 194457  Network.dyn_peer[228]  lookupHopsSig:vector  ETV
vector 194456  Network.dyn_peer[228]  lookupTimeSig:vector  ETV
vector 194463  Network.dyn_peer[231]  lookupHopsSig:vector  ETV
vector 194462  Network.dyn_peer[231]  lookupTimeSig:vector  ETV
vector 194461  Network.dyn_peer[230]  lookupHopsSig:vector  ETV
vector 194460  Network.dyn_peer[230]  lookupTimeSig:vector  ETV
vector 194465  Network.dyn_peer[232]  lookupHopsSig:vector  ETV
vector 194464  Network.dyn_peer[232]  lookupTimeSig:vector  ETV