version 2
run Stability-2-20130521-22:19:58-23591
attr configname Stability
attr datetime 20130521-22:19:58
attr experiment Stability
attr inifile omnetpp.ini
attr iterationvars $0=8
attr iterationvars2 "$0=8, $repetition=2"
attr measurement $0=8
attr network Network
attr processid 23591
attr repetition 2
attr replication #2
attr resultdir results
attr runnumber 2
attr seedset 2

vector 4001  Network.dyn_peer[0]  lookupHopsSig:vector  ETV
vector 4000  Network.dyn_peer[0]  lookupTimeSig:vector  ETV
vector 4003  Network.dyn_peer[1]  lookupHopsSig:vector  ETV
vector 4002  Network.dyn_peer[1]  lookupTimeSig:vector  ETV
vector 4005  Network.dyn_peer[2]  lookupHopsSig:vector  ETV
vector 4004  Network.dyn_peer[2]  lookupTimeSig:vector  ETV
vector 4007  Network.dyn_peer[3]  lookupHopsSig:vector  ETV
vector 4006  Network.dyn_peer[3]  lookupTimeSig:vector  ETV
vector 4009  Network.dyn_peer[4]  lookupHopsSig:vector  ETV
vector 4008  Network.dyn_peer[4]  lookupTimeSig:vector  ETV
vector 4011  Network.dyn_peer[5]  lookupHopsSig:vector  ETV
vector 4010  Network.dyn_peer[5]  lookupTimeSig:vector  ETV
vector 4013  Network.dyn_peer[6]  lookupHopsSig:vector  ETV
vector 4012  Network.dyn_peer[6]  lookupTimeSig:vector  ETV
vector 4015  Network.dyn_peer[7]  lookupHopsSig:vector  ETV
vector 4014  Network.dyn_peer[7]  lookupTimeSig:vector  ETV
vector 4017  Network.dyn_peer[8]  lookupHopsSig:vector  ETV
vector 4016  Network.dyn_peer[8]  lookupTimeSig:vector  ETV
vector 4019  Network.dyn_peer[9]  lookupHopsSig:vector  ETV
vector 4018  Network.dyn_peer[9]  lookupTimeSig:vector  ETV
vector 4021  Network.dyn_peer[10]  lookupHopsSig:vector  ETV
vector 4020  Network.dyn_peer[10]  lookupTimeSig:vector  ETV
vector 4023  Network.dyn_peer[11]  lookupHopsSig:vector  ETV
vector 4022  Network.dyn_peer[11]  lookupTimeSig:vector  ETV
vector 4025  Network.dyn_peer[12]  lookupHopsSig:vector  ETV
vector 4024  Network.dyn_peer[12]  lookupTimeSig:vector  ETV
vector 4027  Network.dyn_peer[13]  lookupHopsSig:vector  ETV
vector 4026  Network.dyn_peer[13]  lookupTimeSig:vector  ETV
vector 4029  Network.dyn_peer[14]  lookupHopsSig:vector  ETV
vector 4028  Network.dyn_peer[14]  lookupTimeSig:vector  ETV
vector 4031  Network.dyn_peer[15]  lookupHopsSig:vector  ETV
vector 4030  Network.dyn_peer[15]  lookupTimeSig:vector  ETV
vector 4033  Network.dyn_peer[16]  lookupHopsSig:vector  ETV
vector 4032  Network.dyn_peer[16]  lookupTimeSig:vector  ETV
vector 4035  Network.dyn_peer[17]  lookupHopsSig:vector  ETV
vector 4034  Network.dyn_peer[17]  lookupTimeSig:vector  ETV
vector 4037  Network.dyn_peer[18]  lookupHopsSig:vector  ETV
vector 4036  Network.dyn_peer[18]  lookupTimeSig:vector  ETV
vector 4039  Network.dyn_peer[19]  lookupHopsSig:vector  ETV
vector 4038  Network.dyn_peer[19]  lookupTimeSig:vector  ETV
vector 4041  Network.dyn_peer[20]  lookupHopsSig:vector  ETV
vector 4040  Network.dyn_peer[20]  lookupTimeSig:vector  ETV
vector 4043  Network.dyn_peer[21]  lookupHopsSig:vector  ETV
vector 4042  Network.dyn_peer[21]  lookupTimeSig:vector  ETV
vector 4045  Network.dyn_peer[22]  lookupHopsSig:vector  ETV
vector 4044  Network.dyn_peer[22]  lookupTimeSig:vector  ETV
vector 4047  Network.dyn_peer[23]  lookupHopsSig:vector  ETV
vector 4046  Network.dyn_peer[23]  lookupTimeSig:vector  ETV
vector 4049  Network.dyn_peer[24]  lookupHopsSig:vector  ETV
vector 4048  Network.dyn_peer[24]  lookupTimeSig:vector  ETV
vector 4051  Network.dyn_peer[25]  lookupHopsSig:vector  ETV
vector 4050  Network.dyn_peer[25]  lookupTimeSig:vector  ETV
vector 4053  Network.dyn_peer[26]  lookupHopsSig:vector  ETV
vector 4052  Network.dyn_peer[26]  lookupTimeSig:vector  ETV
vector 4055  Network.dyn_peer[27]  lookupHopsSig:vector  ETV
vector 4054  Network.dyn_peer[27]  lookupTimeSig:vector  ETV
vector 4057  Network.dyn_peer[28]  lookupHopsSig:vector  ETV
vector 4056  Network.dyn_peer[28]  lookupTimeSig:vector  ETV
vector 4059  Network.dyn_peer[29]  lookupHopsSig:vector  ETV
vector 4058  Network.dyn_peer[29]  lookupTimeSig:vector  ETV
vector 4061  Network.dyn_peer[30]  lookupHopsSig:vector  ETV
vector 4060  Network.dyn_peer[30]  lookupTimeSig:vector  ETV
vector 4063  Network.dyn_peer[31]  lookupHopsSig:vector  ETV
vector 4062  Network.dyn_peer[31]  lookupTimeSig:vector  ETV
vector 4065  Network.dyn_peer[32]  lookupHopsSig:vector  ETV
vector 4064  Network.dyn_peer[32]  lookupTimeSig:vector  ETV
vector 4067  Network.dyn_peer[33]  lookupHopsSig:vector  ETV
vector 4066  Network.dyn_peer[33]  lookupTimeSig:vector  ETV
vector 4069  Network.dyn_peer[34]  lookupHopsSig:vector  ETV
vector 4068  Network.dyn_peer[34]  lookupTimeSig:vector  ETV
vector 4071  Network.dyn_peer[35]  lookupHopsSig:vector  ETV
vector 4070  Network.dyn_peer[35]  lookupTimeSig:vector  ETV
vector 4073  Network.dyn_peer[36]  lookupHopsSig:vector  ETV
vector 4072  Network.dyn_peer[36]  lookupTimeSig:vector  ETV
vector 4075  Network.dyn_peer[37]  lookupHopsSig:vector  ETV
vector 4074  Network.dyn_peer[37]  lookupTimeSig:vector  ETV
vector 4077  Network.dyn_peer[38]  lookupHopsSig:vector  ETV
vector 4076  Network.dyn_peer[38]  lookupTimeSig:vector  ETV
vector 4079  Network.dyn_peer[39]  lookupHopsSig:vector  ETV
vector 4078  Network.dyn_peer[39]  lookupTimeSig:vector  ETV
vector 4081  Network.dyn_peer[40]  lookupHopsSig:vector  ETV
vector 4080  Network.dyn_peer[40]  lookupTimeSig:vector  ETV
vector 4083  Network.dyn_peer[41]  lookupHopsSig:vector  ETV
vector 4082  Network.dyn_peer[41]  lookupTimeSig:vector  ETV
vector 4085  Network.dyn_peer[42]  lookupHopsSig:vector  ETV
vector 4084  Network.dyn_peer[42]  lookupTimeSig:vector  ETV
vector 4087  Network.dyn_peer[43]  lookupHopsSig:vector  ETV
vector 4086  Network.dyn_peer[43]  lookupTimeSig:vector  ETV
vector 4089  Network.dyn_peer[44]  lookupHopsSig:vector  ETV
vector 4088  Network.dyn_peer[44]  lookupTimeSig:vector  ETV
vector 4091  Network.dyn_peer[45]  lookupHopsSig:vector  ETV
vector 4090  Network.dyn_peer[45]  lookupTimeSig:vector  ETV
vector 4093  Network.dyn_peer[46]  lookupHopsSig:vector  ETV
vector 4092  Network.dyn_peer[46]  lookupTimeSig:vector  ETV
vector 4095  Network.dyn_peer[47]  lookupHopsSig:vector  ETV
vector 4094  Network.dyn_peer[47]  lookupTimeSig:vector  ETV
vector 4097  Network.dyn_peer[48]  lookupHopsSig:vector  ETV
vector 4096  Network.dyn_peer[48]  lookupTimeSig:vector  ETV
vector 4099  Network.dyn_peer[49]  lookupHopsSig:vector  ETV
vector 4098  Network.dyn_peer[49]  lookupTimeSig:vector  ETV
vector 4101  Network.dyn_peer[50]  lookupHopsSig:vector  ETV
vector 4100  Network.dyn_peer[50]  lookupTimeSig:vector  ETV
vector 4103  Network.dyn_peer[51]  lookupHopsSig:vector  ETV
vector 4102  Network.dyn_peer[51]  lookupTimeSig:vector  ETV
vector 4105  Network.dyn_peer[52]  lookupHopsSig:vector  ETV
vector 4104  Network.dyn_peer[52]  lookupTimeSig:vector  ETV
vector 4107  Network.dyn_peer[53]  lookupHopsSig:vector  ETV
vector 4106  Network.dyn_peer[53]  lookupTimeSig:vector  ETV
vector 4109  Network.dyn_peer[54]  lookupHopsSig:vector  ETV
vector 4108  Network.dyn_peer[54]  lookupTimeSig:vector  ETV
vector 4111  Network.dyn_peer[55]  lookupHopsSig:vector  ETV
vector 4110  Network.dyn_peer[55]  lookupTimeSig:vector  ETV
vector 4113  Network.dyn_peer[56]  lookupHopsSig:vector  ETV
vector 4112  Network.dyn_peer[56]  lookupTimeSig:vector  ETV
vector 4115  Network.dyn_peer[57]  lookupHopsSig:vector  ETV
vector 4114  Network.dyn_peer[57]  lookupTimeSig:vector  ETV
vector 4117  Network.dyn_peer[58]  lookupHopsSig:vector  ETV
vector 4116  Network.dyn_peer[58]  lookupTimeSig:vector  ETV
vector 4119  Network.dyn_peer[59]  lookupHopsSig:vector  ETV
vector 4118  Network.dyn_peer[59]  lookupTimeSig:vector  ETV
vector 4121  Network.dyn_peer[60]  lookupHopsSig:vector  ETV
vector 4120  Network.dyn_peer[60]  lookupTimeSig:vector  ETV
vector 4123  Network.dyn_peer[61]  lookupHopsSig:vector  ETV
vector 4122  Network.dyn_peer[61]  lookupTimeSig:vector  ETV
vector 4125  Network.dyn_peer[62]  lookupHopsSig:vector  ETV
vector 4124  Network.dyn_peer[62]  lookupTimeSig:vector  ETV
vector 4127  Network.dyn_peer[63]  lookupHopsSig:vector  ETV
vector 4126  Network.dyn_peer[63]  lookupTimeSig:vector  ETV
vector 4129  Network.dyn_peer[64]  lookupHopsSig:vector  ETV
vector 4128  Network.dyn_peer[64]  lookupTimeSig:vector  ETV
vector 4131  Network.dyn_peer[65]  lookupHopsSig:vector  ETV
vector 4130  Network.dyn_peer[65]  lookupTimeSig:vector  ETV
vector 4133  Network.dyn_peer[66]  lookupHopsSig:vector  ETV
vector 4132  Network.dyn_peer[66]  lookupTimeSig:vector  ETV
vector 4135  Network.dyn_peer[67]  lookupHopsSig:vector  ETV
vector 4134  Network.dyn_peer[67]  lookupTimeSig:vector  ETV
vector 4137  Network.dyn_peer[68]  lookupHopsSig:vector  ETV
vector 4136  Network.dyn_peer[68]  lookupTimeSig:vector  ETV
vector 4139  Network.dyn_peer[69]  lookupHopsSig:vector  ETV
vector 4138  Network.dyn_peer[69]  lookupTimeSig:vector  ETV
vector 4141  Network.dyn_peer[70]  lookupHopsSig:vector  ETV
vector 4140  Network.dyn_peer[70]  lookupTimeSig:vector  ETV
vector 4143  Network.dyn_peer[71]  lookupHopsSig:vector  ETV
vector 4142  Network.dyn_peer[71]  lookupTimeSig:vector  ETV
vector 4145  Network.dyn_peer[72]  lookupHopsSig:vector  ETV
vector 4144  Network.dyn_peer[72]  lookupTimeSig:vector  ETV
vector 4147  Network.dyn_peer[73]  lookupHopsSig:vector  ETV
vector 4146  Network.dyn_peer[73]  lookupTimeSig:vector  ETV
vector 4149  Network.dyn_peer[74]  lookupHopsSig:vector  ETV
vector 4148  Network.dyn_peer[74]  lookupTimeSig:vector  ETV
vector 4151  Network.dyn_peer[75]  lookupHopsSig:vector  ETV
vector 4150  Network.dyn_peer[75]  lookupTimeSig:vector  ETV
vector 4153  Network.dyn_peer[76]  lookupHopsSig:vector  ETV
vector 4152  Network.dyn_peer[76]  lookupTimeSig:vector  ETV
vector 4155  Network.dyn_peer[77]  lookupHopsSig:vector  ETV
vector 4154  Network.dyn_peer[77]  lookupTimeSig:vector  ETV
vector 4157  Network.dyn_peer[78]  lookupHopsSig:vector  ETV
vector 4156  Network.dyn_peer[78]  lookupTimeSig:vector  ETV
vector 4159  Network.dyn_peer[79]  lookupHopsSig:vector  ETV
vector 4158  Network.dyn_peer[79]  lookupTimeSig:vector  ETV
vector 4161  Network.dyn_peer[80]  lookupHopsSig:vector  ETV
vector 4160  Network.dyn_peer[80]  lookupTimeSig:vector  ETV
vector 4163  Network.dyn_peer[81]  lookupHopsSig:vector  ETV
vector 4162  Network.dyn_peer[81]  lookupTimeSig:vector  ETV
vector 4165  Network.dyn_peer[82]  lookupHopsSig:vector  ETV
vector 4164  Network.dyn_peer[82]  lookupTimeSig:vector  ETV
vector 4167  Network.dyn_peer[83]  lookupHopsSig:vector  ETV
vector 4166  Network.dyn_peer[83]  lookupTimeSig:vector  ETV
vector 4169  Network.dyn_peer[84]  lookupHopsSig:vector  ETV
vector 4168  Network.dyn_peer[84]  lookupTimeSig:vector  ETV
vector 4171  Network.dyn_peer[85]  lookupHopsSig:vector  ETV
vector 4170  Network.dyn_peer[85]  lookupTimeSig:vector  ETV
vector 4173  Network.dyn_peer[86]  lookupHopsSig:vector  ETV
vector 4172  Network.dyn_peer[86]  lookupTimeSig:vector  ETV
vector 4175  Network.dyn_peer[87]  lookupHopsSig:vector  ETV
vector 4174  Network.dyn_peer[87]  lookupTimeSig:vector  ETV
vector 4177  Network.dyn_peer[88]  lookupHopsSig:vector  ETV
vector 4176  Network.dyn_peer[88]  lookupTimeSig:vector  ETV
vector 4179  Network.dyn_peer[89]  lookupHopsSig:vector  ETV
vector 4178  Network.dyn_peer[89]  lookupTimeSig:vector  ETV
vector 4181  Network.dyn_peer[90]  lookupHopsSig:vector  ETV
vector 4180  Network.dyn_peer[90]  lookupTimeSig:vector  ETV
vector 4183  Network.dyn_peer[91]  lookupHopsSig:vector  ETV
vector 4182  Network.dyn_peer[91]  lookupTimeSig:vector  ETV
vector 4185  Network.dyn_peer[92]  lookupHopsSig:vector  ETV
vector 4184  Network.dyn_peer[92]  lookupTimeSig:vector  ETV
vector 4187  Network.dyn_peer[93]  lookupHopsSig:vector  ETV
vector 4186  Network.dyn_peer[93]  lookupTimeSig:vector  ETV
vector 4189  Network.dyn_peer[94]  lookupHopsSig:vector  ETV
vector 4188  Network.dyn_peer[94]  lookupTimeSig:vector  ETV
vector 4191  Network.dyn_peer[95]  lookupHopsSig:vector  ETV
vector 4190  Network.dyn_peer[95]  lookupTimeSig:vector  ETV
vector 4193  Network.dyn_peer[96]  lookupHopsSig:vector  ETV
vector 4192  Network.dyn_peer[96]  lookupTimeSig:vector  ETV
vector 4195  Network.dyn_peer[97]  lookupHopsSig:vector  ETV
vector 4194  Network.dyn_peer[97]  lookupTimeSig:vector  ETV
vector 4197  Network.dyn_peer[98]  lookupHopsSig:vector  ETV
vector 4196  Network.dyn_peer[98]  lookupTimeSig:vector  ETV
vector 4199  Network.dyn_peer[99]  lookupHopsSig:vector  ETV
vector 4198  Network.dyn_peer[99]  lookupTimeSig:vector  ETV
vector 4201  Network.dyn_peer[100]  lookupHopsSig:vector  ETV
vector 4200  Network.dyn_peer[100]  lookupTimeSig:vector  ETV
vector 4203  Network.dyn_peer[101]  lookupHopsSig:vector  ETV
vector 4202  Network.dyn_peer[101]  lookupTimeSig:vector  ETV
vector 4205  Network.dyn_peer[102]  lookupHopsSig:vector  ETV
vector 4204  Network.dyn_peer[102]  lookupTimeSig:vector  ETV
vector 4207  Network.dyn_peer[103]  lookupHopsSig:vector  ETV
vector 4206  Network.dyn_peer[103]  lookupTimeSig:vector  ETV
vector 4209  Network.dyn_peer[104]  lookupHopsSig:vector  ETV
vector 4208  Network.dyn_peer[104]  lookupTimeSig:vector  ETV
vector 4211  Network.dyn_peer[105]  lookupHopsSig:vector  ETV
vector 4210  Network.dyn_peer[105]  lookupTimeSig:vector  ETV
vector 4213  Network.dyn_peer[106]  lookupHopsSig:vector  ETV
vector 4212  Network.dyn_peer[106]  lookupTimeSig:vector  ETV
vector 4215  Network.dyn_peer[107]  lookupHopsSig:vector  ETV
vector 4214  Network.dyn_peer[107]  lookupTimeSig:vector  ETV
vector 4217  Network.dyn_peer[108]  lookupHopsSig:vector  ETV
vector 4216  Network.dyn_peer[108]  lookupTimeSig:vector  ETV
vector 4219  Network.dyn_peer[109]  lookupHopsSig:vector  ETV
vector 4218  Network.dyn_peer[109]  lookupTimeSig:vector  ETV
vector 4221  Network.dyn_peer[110]  lookupHopsSig:vector  ETV
vector 4220  Network.dyn_peer[110]  lookupTimeSig:vector  ETV
vector 4223  Network.dyn_peer[111]  lookupHopsSig:vector  ETV
vector 4222  Network.dyn_peer[111]  lookupTimeSig:vector  ETV
vector 4225  Network.dyn_peer[112]  lookupHopsSig:vector  ETV
vector 4224  Network.dyn_peer[112]  lookupTimeSig:vector  ETV
vector 4227  Network.dyn_peer[113]  lookupHopsSig:vector  ETV
vector 4226  Network.dyn_peer[113]  lookupTimeSig:vector  ETV
vector 4229  Network.dyn_peer[114]  lookupHopsSig:vector  ETV
vector 4228  Network.dyn_peer[114]  lookupTimeSig:vector  ETV
vector 4231  Network.dyn_peer[115]  lookupHopsSig:vector  ETV
vector 4230  Network.dyn_peer[115]  lookupTimeSig:vector  ETV
vector 4233  Network.dyn_peer[116]  lookupHopsSig:vector  ETV
vector 4232  Network.dyn_peer[116]  lookupTimeSig:vector  ETV
vector 4235  Network.dyn_peer[117]  lookupHopsSig:vector  ETV
vector 4234  Network.dyn_peer[117]  lookupTimeSig:vector  ETV
vector 4237  Network.dyn_peer[118]  lookupHopsSig:vector  ETV
vector 4236  Network.dyn_peer[118]  lookupTimeSig:vector  ETV
vector 4239  Network.dyn_peer[119]  lookupHopsSig:vector  ETV
vector 4238  Network.dyn_peer[119]  lookupTimeSig:vector  ETV
vector 4241  Network.dyn_peer[120]  lookupHopsSig:vector  ETV
vector 4240  Network.dyn_peer[120]  lookupTimeSig:vector  ETV
vector 4243  Network.dyn_peer[121]  lookupHopsSig:vector  ETV
vector 4242  Network.dyn_peer[121]  lookupTimeSig:vector  ETV
vector 4245  Network.dyn_peer[122]  lookupHopsSig:vector  ETV
vector 4244  Network.dyn_peer[122]  lookupTimeSig:vector  ETV
vector 4247  Network.dyn_peer[123]  lookupHopsSig:vector  ETV
vector 4246  Network.dyn_peer[123]  lookupTimeSig:vector  ETV
vector 4249  Network.dyn_peer[124]  lookupHopsSig:vector  ETV
vector 4248  Network.dyn_peer[124]  lookupTimeSig:vector  ETV
vector 4251  Network.dyn_peer[125]  lookupHopsSig:vector  ETV
vector 4250  Network.dyn_peer[125]  lookupTimeSig:vector  ETV
vector 4253  Network.dyn_peer[126]  lookupHopsSig:vector  ETV
vector 4252  Network.dyn_peer[126]  lookupTimeSig:vector  ETV
vector 4255  Network.dyn_peer[127]  lookupHopsSig:vector  ETV
vector 4254  Network.dyn_peer[127]  lookupTimeSig:vector  ETV
vector 4257  Network.dyn_peer[128]  lookupHopsSig:vector  ETV
vector 4256  Network.dyn_peer[128]  lookupTimeSig:vector  ETV
vector 4259  Network.dyn_peer[129]  lookupHopsSig:vector  ETV
vector 4258  Network.dyn_peer[129]  lookupTimeSig:vector  ETV
vector 4261  Network.dyn_peer[130]  lookupHopsSig:vector  ETV
vector 4260  Network.dyn_peer[130]  lookupTimeSig:vector  ETV
vector 4263  Network.dyn_peer[131]  lookupHopsSig:vector  ETV
vector 4262  Network.dyn_peer[131]  lookupTimeSig:vector  ETV
vector 4265  Network.dyn_peer[132]  lookupHopsSig:vector  ETV
vector 4264  Network.dyn_peer[132]  lookupTimeSig:vector  ETV
vector 4267  Network.dyn_peer[133]  lookupHopsSig:vector  ETV
vector 4266  Network.dyn_peer[133]  lookupTimeSig:vector  ETV
vector 4269  Network.dyn_peer[134]  lookupHopsSig:vector  ETV
vector 4268  Network.dyn_peer[134]  lookupTimeSig:vector  ETV
vector 4271  Network.dyn_peer[135]  lookupHopsSig:vector  ETV
vector 4270  Network.dyn_peer[135]  lookupTimeSig:vector  ETV
vector 4273  Network.dyn_peer[136]  lookupHopsSig:vector  ETV
vector 4272  Network.dyn_peer[136]  lookupTimeSig:vector  ETV
vector 4275  Network.dyn_peer[137]  lookupHopsSig:vector  ETV
vector 4274  Network.dyn_peer[137]  lookupTimeSig:vector  ETV
vector 4277  Network.dyn_peer[138]  lookupHopsSig:vector  ETV
vector 4276  Network.dyn_peer[138]  lookupTimeSig:vector  ETV
vector 4279  Network.dyn_peer[139]  lookupHopsSig:vector  ETV
vector 4278  Network.dyn_peer[139]  lookupTimeSig:vector  ETV
vector 4281  Network.dyn_peer[140]  lookupHopsSig:vector  ETV
vector 4280  Network.dyn_peer[140]  lookupTimeSig:vector  ETV
vector 4283  Network.dyn_peer[141]  lookupHopsSig:vector  ETV
vector 4282  Network.dyn_peer[141]  lookupTimeSig:vector  ETV
vector 4285  Network.dyn_peer[142]  lookupHopsSig:vector  ETV
vector 4284  Network.dyn_peer[142]  lookupTimeSig:vector  ETV
vector 4287  Network.dyn_peer[143]  lookupHopsSig:vector  ETV
vector 4286  Network.dyn_peer[143]  lookupTimeSig:vector  ETV
vector 4289  Network.dyn_peer[144]  lookupHopsSig:vector  ETV
vector 4288  Network.dyn_peer[144]  lookupTimeSig:vector  ETV
vector 4291  Network.dyn_peer[145]  lookupHopsSig:vector  ETV
vector 4290  Network.dyn_peer[145]  lookupTimeSig:vector  ETV
vector 4293  Network.dyn_peer[146]  lookupHopsSig:vector  ETV
vector 4292  Network.dyn_peer[146]  lookupTimeSig:vector  ETV
vector 4295  Network.dyn_peer[147]  lookupHopsSig:vector  ETV
vector 4294  Network.dyn_peer[147]  lookupTimeSig:vector  ETV
vector 4297  Network.dyn_peer[148]  lookupHopsSig:vector  ETV
vector 4296  Network.dyn_peer[148]  lookupTimeSig:vector  ETV
vector 4299  Network.dyn_peer[149]  lookupHopsSig:vector  ETV
vector 4298  Network.dyn_peer[149]  lookupTimeSig:vector  ETV
vector 4301  Network.dyn_peer[150]  lookupHopsSig:vector  ETV
vector 4300  Network.dyn_peer[150]  lookupTimeSig:vector  ETV
vector 4303  Network.dyn_peer[151]  lookupHopsSig:vector  ETV
vector 4302  Network.dyn_peer[151]  lookupTimeSig:vector  ETV
vector 4305  Network.dyn_peer[152]  lookupHopsSig:vector  ETV
vector 4304  Network.dyn_peer[152]  lookupTimeSig:vector  ETV
vector 4307  Network.dyn_peer[153]  lookupHopsSig:vector  ETV
vector 4306  Network.dyn_peer[153]  lookupTimeSig:vector  ETV
vector 4309  Network.dyn_peer[154]  lookupHopsSig:vector  ETV
vector 4308  Network.dyn_peer[154]  lookupTimeSig:vector  ETV
vector 4311  Network.dyn_peer[155]  lookupHopsSig:vector  ETV
vector 4310  Network.dyn_peer[155]  lookupTimeSig:vector  ETV
vector 4313  Network.dyn_peer[156]  lookupHopsSig:vector  ETV
vector 4312  Network.dyn_peer[156]  lookupTimeSig:vector  ETV
vector 4315  Network.dyn_peer[157]  lookupHopsSig:vector  ETV
vector 4314  Network.dyn_peer[157]  lookupTimeSig:vector  ETV
vector 4317  Network.dyn_peer[158]  lookupHopsSig:vector  ETV
vector 4316  Network.dyn_peer[158]  lookupTimeSig:vector  ETV
vector 4319  Network.dyn_peer[159]  lookupHopsSig:vector  ETV
vector 4318  Network.dyn_peer[159]  lookupTimeSig:vector  ETV
vector 4321  Network.dyn_peer[160]  lookupHopsSig:vector  ETV
vector 4320  Network.dyn_peer[160]  lookupTimeSig:vector  ETV
vector 4323  Network.dyn_peer[161]  lookupHopsSig:vector  ETV
vector 4322  Network.dyn_peer[161]  lookupTimeSig:vector  ETV
vector 4325  Network.dyn_peer[162]  lookupHopsSig:vector  ETV
vector 4324  Network.dyn_peer[162]  lookupTimeSig:vector  ETV
vector 4327  Network.dyn_peer[163]  lookupHopsSig:vector  ETV
vector 4326  Network.dyn_peer[163]  lookupTimeSig:vector  ETV
vector 4329  Network.dyn_peer[164]  lookupHopsSig:vector  ETV
vector 4328  Network.dyn_peer[164]  lookupTimeSig:vector  ETV
vector 4331  Network.dyn_peer[165]  lookupHopsSig:vector  ETV
vector 4330  Network.dyn_peer[165]  lookupTimeSig:vector  ETV
vector 4333  Network.dyn_peer[166]  lookupHopsSig:vector  ETV
vector 4332  Network.dyn_peer[166]  lookupTimeSig:vector  ETV
vector 4335  Network.dyn_peer[167]  lookupHopsSig:vector  ETV
vector 4334  Network.dyn_peer[167]  lookupTimeSig:vector  ETV
vector 4337  Network.dyn_peer[168]  lookupHopsSig:vector  ETV
vector 4336  Network.dyn_peer[168]  lookupTimeSig:vector  ETV
vector 4339  Network.dyn_peer[169]  lookupHopsSig:vector  ETV
vector 4338  Network.dyn_peer[169]  lookupTimeSig:vector  ETV
vector 4341  Network.dyn_peer[170]  lookupHopsSig:vector  ETV
vector 4340  Network.dyn_peer[170]  lookupTimeSig:vector  ETV
vector 4343  Network.dyn_peer[171]  lookupHopsSig:vector  ETV
vector 4342  Network.dyn_peer[171]  lookupTimeSig:vector  ETV
vector 4345  Network.dyn_peer[172]  lookupHopsSig:vector  ETV
vector 4344  Network.dyn_peer[172]  lookupTimeSig:vector  ETV
vector 4347  Network.dyn_peer[173]  lookupHopsSig:vector  ETV
vector 4346  Network.dyn_peer[173]  lookupTimeSig:vector  ETV
vector 4349  Network.dyn_peer[174]  lookupHopsSig:vector  ETV
vector 4348  Network.dyn_peer[174]  lookupTimeSig:vector  ETV
vector 4351  Network.dyn_peer[175]  lookupHopsSig:vector  ETV
vector 4350  Network.dyn_peer[175]  lookupTimeSig:vector  ETV
vector 4353  Network.dyn_peer[176]  lookupHopsSig:vector  ETV
vector 4352  Network.dyn_peer[176]  lookupTimeSig:vector  ETV
vector 4355  Network.dyn_peer[177]  lookupHopsSig:vector  ETV
vector 4354  Network.dyn_peer[177]  lookupTimeSig:vector  ETV
vector 4357  Network.dyn_peer[178]  lookupHopsSig:vector  ETV
vector 4356  Network.dyn_peer[178]  lookupTimeSig:vector  ETV
vector 4359  Network.dyn_peer[179]  lookupHopsSig:vector  ETV
vector 4358  Network.dyn_peer[179]  lookupTimeSig:vector  ETV
vector 4361  Network.dyn_peer[180]  lookupHopsSig:vector  ETV
vector 4360  Network.dyn_peer[180]  lookupTimeSig:vector  ETV
vector 4363  Network.dyn_peer[181]  lookupHopsSig:vector  ETV
vector 4362  Network.dyn_peer[181]  lookupTimeSig:vector  ETV
vector 4365  Network.dyn_peer[182]  lookupHopsSig:vector  ETV
vector 4364  Network.dyn_peer[182]  lookupTimeSig:vector  ETV
vector 4367  Network.dyn_peer[183]  lookupHopsSig:vector  ETV
vector 4366  Network.dyn_peer[183]  lookupTimeSig:vector  ETV
vector 4369  Network.dyn_peer[184]  lookupHopsSig:vector  ETV
vector 4368  Network.dyn_peer[184]  lookupTimeSig:vector  ETV
vector 4371  Network.dyn_peer[185]  lookupHopsSig:vector  ETV
vector 4370  Network.dyn_peer[185]  lookupTimeSig:vector  ETV
vector 4373  Network.dyn_peer[186]  lookupHopsSig:vector  ETV
vector 4372  Network.dyn_peer[186]  lookupTimeSig:vector  ETV
vector 4375  Network.dyn_peer[187]  lookupHopsSig:vector  ETV
vector 4374  Network.dyn_peer[187]  lookupTimeSig:vector  ETV
vector 4377  Network.dyn_peer[188]  lookupHopsSig:vector  ETV
vector 4376  Network.dyn_peer[188]  lookupTimeSig:vector  ETV
vector 4379  Network.dyn_peer[189]  lookupHopsSig:vector  ETV
vector 4378  Network.dyn_peer[189]  lookupTimeSig:vector  ETV
vector 4381  Network.dyn_peer[190]  lookupHopsSig:vector  ETV
vector 4380  Network.dyn_peer[190]  lookupTimeSig:vector  ETV
vector 4383  Network.dyn_peer[191]  lookupHopsSig:vector  ETV
vector 4382  Network.dyn_peer[191]  lookupTimeSig:vector  ETV
vector 4385  Network.dyn_peer[192]  lookupHopsSig:vector  ETV
vector 4384  Network.dyn_peer[192]  lookupTimeSig:vector  ETV
vector 4387  Network.dyn_peer[193]  lookupHopsSig:vector  ETV
vector 4386  Network.dyn_peer[193]  lookupTimeSig:vector  ETV
vector 4389  Network.dyn_peer[194]  lookupHopsSig:vector  ETV
vector 4388  Network.dyn_peer[194]  lookupTimeSig:vector  ETV
vector 4391  Network.dyn_peer[195]  lookupHopsSig:vector  ETV
vector 4390  Network.dyn_peer[195]  lookupTimeSig:vector  ETV
vector 4393  Network.dyn_peer[196]  lookupHopsSig:vector  ETV
vector 4392  Network.dyn_peer[196]  lookupTimeSig:vector  ETV
vector 4395  Network.dyn_peer[197]  lookupHopsSig:vector  ETV
vector 4394  Network.dyn_peer[197]  lookupTimeSig:vector  ETV
vector 4397  Network.dyn_peer[198]  lookupHopsSig:vector  ETV
vector 4396  Network.dyn_peer[198]  lookupTimeSig:vector  ETV
vector 4399  Network.dyn_peer[199]  lookupHopsSig:vector  ETV
vector 4398  Network.dyn_peer[199]  lookupTimeSig:vector  ETV
vector 4401  Network.dyn_peer[200]  lookupHopsSig:vector  ETV
vector 4400  Network.dyn_peer[200]  lookupTimeSig:vector  ETV
vector 4403  Network.dyn_peer[201]  lookupHopsSig:vector  ETV
vector 4402  Network.dyn_peer[201]  lookupTimeSig:vector  ETV
vector 4405  Network.dyn_peer[202]  lookupHopsSig:vector  ETV
vector 4404  Network.dyn_peer[202]  lookupTimeSig:vector  ETV
vector 4407  Network.dyn_peer[203]  lookupHopsSig:vector  ETV
vector 4406  Network.dyn_peer[203]  lookupTimeSig:vector  ETV
vector 4409  Network.dyn_peer[204]  lookupHopsSig:vector  ETV
vector 4408  Network.dyn_peer[204]  lookupTimeSig:vector  ETV
vector 4411  Network.dyn_peer[205]  lookupHopsSig:vector  ETV
vector 4410  Network.dyn_peer[205]  lookupTimeSig:vector  ETV
vector 4413  Network.dyn_peer[206]  lookupHopsSig:vector  ETV
vector 4412  Network.dyn_peer[206]  lookupTimeSig:vector  ETV
vector 4415  Network.dyn_peer[207]  lookupHopsSig:vector  ETV
vector 4414  Network.dyn_peer[207]  lookupTimeSig:vector  ETV
vector 4417  Network.dyn_peer[208]  lookupHopsSig:vector  ETV
vector 4416  Network.dyn_peer[208]  lookupTimeSig:vector  ETV
vector 4419  Network.dyn_peer[209]  lookupHopsSig:vector  ETV
vector 4418  Network.dyn_peer[209]  lookupTimeSig:vector  ETV
vector 4421  Network.dyn_peer[210]  lookupHopsSig:vector  ETV
vector 4420  Network.dyn_peer[210]  lookupTimeSig:vector  ETV
vector 4423  Network.dyn_peer[211]  lookupHopsSig:vector  ETV
vector 4422  Network.dyn_peer[211]  lookupTimeSig:vector  ETV
vector 4425  Network.dyn_peer[212]  lookupHopsSig:vector  ETV
vector 4424  Network.dyn_peer[212]  lookupTimeSig:vector  ETV
vector 4427  Network.dyn_peer[213]  lookupHopsSig:vector  ETV
vector 4426  Network.dyn_peer[213]  lookupTimeSig:vector  ETV
vector 4429  Network.dyn_peer[214]  lookupHopsSig:vector  ETV
vector 4428  Network.dyn_peer[214]  lookupTimeSig:vector  ETV
vector 4431  Network.dyn_peer[215]  lookupHopsSig:vector  ETV
vector 4430  Network.dyn_peer[215]  lookupTimeSig:vector  ETV
vector 4433  Network.dyn_peer[216]  lookupHopsSig:vector  ETV
vector 4432  Network.dyn_peer[216]  lookupTimeSig:vector  ETV
vector 4435  Network.dyn_peer[217]  lookupHopsSig:vector  ETV
vector 4434  Network.dyn_peer[217]  lookupTimeSig:vector  ETV
vector 4437  Network.dyn_peer[218]  lookupHopsSig:vector  ETV
vector 4436  Network.dyn_peer[218]  lookupTimeSig:vector  ETV
vector 4439  Network.dyn_peer[219]  lookupHopsSig:vector  ETV
vector 4438  Network.dyn_peer[219]  lookupTimeSig:vector  ETV
vector 4441  Network.dyn_peer[220]  lookupHopsSig:vector  ETV
vector 4440  Network.dyn_peer[220]  lookupTimeSig:vector  ETV
vector 4443  Network.dyn_peer[221]  lookupHopsSig:vector  ETV
vector 4442  Network.dyn_peer[221]  lookupTimeSig:vector  ETV
vector 4445  Network.dyn_peer[222]  lookupHopsSig:vector  ETV
vector 4444  Network.dyn_peer[222]  lookupTimeSig:vector  ETV
vector 4447  Network.dyn_peer[223]  lookupHopsSig:vector  ETV
vector 4446  Network.dyn_peer[223]  lookupTimeSig:vector  ETV
vector 4449  Network.dyn_peer[224]  lookupHopsSig:vector  ETV
vector 4448  Network.dyn_peer[224]  lookupTimeSig:vector  ETV
vector 4451  Network.dyn_peer[225]  lookupHopsSig:vector  ETV
vector 4450  Network.dyn_peer[225]  lookupTimeSig:vector  ETV
vector 4453  Network.dyn_peer[226]  lookupHopsSig:vector  ETV
vector 4452  Network.dyn_peer[226]  lookupTimeSig:vector  ETV
vector 4455  Network.dyn_peer[227]  lookupHopsSig:vector  ETV
vector 4454  Network.dyn_peer[227]  lookupTimeSig:vector  ETV
vector 4457  Network.dyn_peer[228]  lookupHopsSig:vector  ETV
vector 4456  Network.dyn_peer[228]  lookupTimeSig:vector  ETV
vector 4459  Network.dyn_peer[229]  lookupHopsSig:vector  ETV
vector 4458  Network.dyn_peer[229]  lookupTimeSig:vector  ETV
vector 4461  Network.dyn_peer[230]  lookupHopsSig:vector  ETV
vector 4460  Network.dyn_peer[230]  lookupTimeSig:vector  ETV
vector 4463  Network.dyn_peer[231]  lookupHopsSig:vector  ETV
vector 4462  Network.dyn_peer[231]  lookupTimeSig:vector  ETV
vector 4465  Network.dyn_peer[232]  lookupHopsSig:vector  ETV
vector 4464  Network.dyn_peer[232]  lookupTimeSig:vector  ETV
vector 4467  Network.dyn_peer[233]  lookupHopsSig:vector  ETV
vector 4466  Network.dyn_peer[233]  lookupTimeSig:vector  ETV
vector 4469  Network.dyn_peer[234]  lookupHopsSig:vector  ETV
vector 4468  Network.dyn_peer[234]  lookupTimeSig:vector  ETV
vector 4471  Network.dyn_peer[235]  lookupHopsSig:vector  ETV
vector 4470  Network.dyn_peer[235]  lookupTimeSig:vector  ETV
vector 4473  Network.dyn_peer[236]  lookupHopsSig:vector  ETV
vector 4472  Network.dyn_peer[236]  lookupTimeSig:vector  ETV
vector 4475  Network.dyn_peer[237]  lookupHopsSig:vector  ETV
vector 4474  Network.dyn_peer[237]  lookupTimeSig:vector  ETV
vector 4477  Network.dyn_peer[238]  lookupHopsSig:vector  ETV
vector 4476  Network.dyn_peer[238]  lookupTimeSig:vector  ETV
vector 4479  Network.dyn_peer[239]  lookupHopsSig:vector  ETV
vector 4478  Network.dyn_peer[239]  lookupTimeSig:vector  ETV
vector 4481  Network.dyn_peer[240]  lookupHopsSig:vector  ETV