file 954542 1369168415                                          
version 2
run Stability-137-20130521-22:33:30-23591
attr configname Stability
attr datetime 20130521-22:33:30
attr experiment Stability
attr inifile omnetpp.ini
attr iterationvars $0=0.5
attr iterationvars2 "$0=0.5, $repetition=17"
attr measurement $0=0.5
attr network Network
attr processid 23591
attr repetition 17
attr replication #17
attr resultdir results
attr runnumber 137
attr seedset 137

vector 274001  Network.dyn_peer[0]  lookupHopsSig:vector  ETV
vector 274000  Network.dyn_peer[0]  lookupTimeSig:vector  ETV
vector 274003  Network.dyn_peer[1]  lookupHopsSig:vector  ETV
vector 274002  Network.dyn_peer[1]  lookupTimeSig:vector  ETV
vector 274005  Network.dyn_peer[2]  lookupHopsSig:vector  ETV
vector 274004  Network.dyn_peer[2]  lookupTimeSig:vector  ETV
vector 274007  Network.dyn_peer[3]  lookupHopsSig:vector  ETV
vector 274006  Network.dyn_peer[3]  lookupTimeSig:vector  ETV
vector 274009  Network.dyn_peer[4]  lookupHopsSig:vector  ETV
vector 274008  Network.dyn_peer[4]  lookupTimeSig:vector  ETV
vector 274011  Network.dyn_peer[5]  lookupHopsSig:vector  ETV
vector 274010  Network.dyn_peer[5]  lookupTimeSig:vector  ETV
vector 274013  Network.dyn_peer[6]  lookupHopsSig:vector  ETV
vector 274012  Network.dyn_peer[6]  lookupTimeSig:vector  ETV
vector 274015  Network.dyn_peer[7]  lookupHopsSig:vector  ETV
vector 274014  Network.dyn_peer[7]  lookupTimeSig:vector  ETV
vector 274017  Network.dyn_peer[8]  lookupHopsSig:vector  ETV
vector 274016  Network.dyn_peer[8]  lookupTimeSig:vector  ETV
vector 274019  Network.dyn_peer[9]  lookupHopsSig:vector  ETV
vector 274018  Network.dyn_peer[9]  lookupTimeSig:vector  ETV
vector 274021  Network.dyn_peer[10]  lookupHopsSig:vector  ETV
vector 274020  Network.dyn_peer[10]  lookupTimeSig:vector  ETV
vector 274023  Network.dyn_peer[11]  lookupHopsSig:vector  ETV
vector 274022  Network.dyn_peer[11]  lookupTimeSig:vector  ETV
vector 274025  Network.dyn_peer[12]  lookupHopsSig:vector  ETV
vector 274024  Network.dyn_peer[12]  lookupTimeSig:vector  ETV
vector 274027  Network.dyn_peer[13]  lookupHopsSig:vector  ETV
vector 274026  Network.dyn_peer[13]  lookupTimeSig:vector  ETV
vector 274029  Network.dyn_peer[14]  lookupHopsSig:vector  ETV
vector 274028  Network.dyn_peer[14]  lookupTimeSig:vector  ETV
vector 274031  Network.dyn_peer[15]  lookupHopsSig:vector  ETV
vector 274030  Network.dyn_peer[15]  lookupTimeSig:vector  ETV
vector 274033  Network.dyn_peer[16]  lookupHopsSig:vector  ETV
vector 274032  Network.dyn_peer[16]  lookupTimeSig:vector  ETV
vector 274035  Network.dyn_peer[17]  lookupHopsSig:vector  ETV
vector 274034  Network.dyn_peer[17]  lookupTimeSig:vector  ETV
vector 274037  Network.dyn_peer[18]  lookupHopsSig:vector  ETV
vector 274036  Network.dyn_peer[18]  lookupTimeSig:vector  ETV
vector 274039  Network.dyn_peer[19]  lookupHopsSig:vector  ETV
vector 274038  Network.dyn_peer[19]  lookupTimeSig:vector  ETV
vector 274043  Network.dyn_peer[21]  lookupHopsSig:vector  ETV
vector 274042  Network.dyn_peer[21]  lookupTimeSig:vector  ETV
vector 274041  Network.dyn_peer[20]  lookupHopsSig:vector  ETV
vector 274040  Network.dyn_peer[20]  lookupTimeSig:vector  ETV
vector 274045  Network.dyn_peer[22]  lookupHopsSig:vector  ETV
vector 274044  Network.dyn_peer[22]  lookupTimeSig:vector  ETV
vector 274047  Network.dyn_peer[23]  lookupHopsSig:vector  ETV
vector 274046  Network.dyn_peer[23]  lookupTimeSig:vector  ETV
vector 274049  Network.dyn_peer[24]  lookupHopsSig:vector  ETV
vector 274048  Network.dyn_peer[24]  lookupTimeSig:vector  ETV
vector 274051  Network.dyn_peer[25]  lookupHopsSig:vector  ETV
vector 274050  Network.dyn_peer[25]  lookupTimeSig:vector  ETV
vector 274053  Network.dyn_peer[26]  lookupHopsSig:vector  ETV
vector 274052  Network.dyn_peer[26]  lookupTimeSig:vector  ETV
vector 274055  Network.dyn_peer[27]  lookupHopsSig:vector  ETV
vector 274054  Network.dyn_peer[27]  lookupTimeSig:vector  ETV
vector 274057  Network.dyn_peer[28]  lookupHopsSig:vector  ETV
vector 274056  Network.dyn_peer[28]  lookupTimeSig:vector  ETV
vector 274059  Network.dyn_peer[29]  lookupHopsSig:vector  ETV
vector 274058  Network.dyn_peer[29]  lookupTimeSig:vector  ETV
vector 274061  Network.dyn_peer[30]  lookupHopsSig:vector  ETV
vector 274060  Network.dyn_peer[30]  lookupTimeSig:vector  ETV
vector 274063  Network.dyn_peer[31]  lookupHopsSig:vector  ETV
vector 274062  Network.dyn_peer[31]  lookupTimeSig:vector  ETV
vector 274065  Network.dyn_peer[32]  lookupHopsSig:vector  ETV
vector 274064  Network.dyn_peer[32]  lookupTimeSig:vector  ETV
vector 274067  Network.dyn_peer[33]  lookupHopsSig:vector  ETV
vector 274066  Network.dyn_peer[33]  lookupTimeSig:vector  ETV
vector 274069  Network.dyn_peer[34]  lookupHopsSig:vector  ETV
vector 274068  Network.dyn_peer[34]  lookupTimeSig:vector  ETV
vector 274071  Network.dyn_peer[35]  lookupHopsSig:vector  ETV
vector 274070  Network.dyn_peer[35]  lookupTimeSig:vector  ETV
vector 274073  Network.dyn_peer[36]  lookupHopsSig:vector  ETV
vector 274072  Network.dyn_peer[36]  lookupTimeSig:vector  ETV
vector 274075  Network.dyn_peer[37]  lookupHopsSig:vector  ETV
vector 274074  Network.dyn_peer[37]  lookupTimeSig:vector  ETV
vector 274077  Network.dyn_peer[38]  lookupHopsSig:vector  ETV
vector 274076  Network.dyn_peer[38]  lookupTimeSig:vector  ETV
vector 274079  Network.dyn_peer[39]  lookupHopsSig:vector  ETV
vector 274078  Network.dyn_peer[39]  lookupTimeSig:vector  ETV
vector 274081  Network.dyn_peer[40]  lookupHopsSig:vector  ETV
vector 274080  Network.dyn_peer[40]  lookupTimeSig:vector  ETV
vector 274083  Network.dyn_peer[41]  lookupHopsSig:vector  ETV
vector 274082  Network.dyn_peer[41]  lookupTimeSig:vector  ETV
vector 274085  Network.dyn_peer[42]  lookupHopsSig:vector  ETV
vector 274084  Network.dyn_peer[42]  lookupTimeSig:vector  ETV
vector 274087  Network.dyn_peer[43]  lookupHopsSig:vector  ETV
vector 274086  Network.dyn_peer[43]  lookupTimeSig:vector  ETV
vector 274089  Network.dyn_peer[44]  lookupHopsSig:vector  ETV
vector 274088  Network.dyn_peer[44]  lookupTimeSig:vector  ETV
vector 274091  Network.dyn_peer[45]  lookupHopsSig:vector  ETV
vector 274090  Network.dyn_peer[45]  lookupTimeSig:vector  ETV
vector 274093  Network.dyn_peer[46]  lookupHopsSig:vector  ETV
vector 274092  Network.dyn_peer[46]  lookupTimeSig:vector  ETV
vector 274095  Network.dyn_peer[47]  lookupHopsSig:vector  ETV
vector 274094  Network.dyn_peer[47]  lookupTimeSig:vector  ETV
vector 274097  Network.dyn_peer[48]  lookupHopsSig:vector  ETV
vector 274096  Network.dyn_peer[48]  lookupTimeSig:vector  ETV
vector 274099  Network.dyn_peer[49]  lookupHopsSig:vector  ETV
vector 274098  Network.dyn_peer[49]  lookupTimeSig:vector  ETV
vector 274101  Network.dyn_peer[50]  lookupHopsSig:vector  ETV
vector 274100  Network.dyn_peer[50]  lookupTimeSig:vector  ETV
vector 274103  Network.dyn_peer[51]  lookupHopsSig:vector  ETV
vector 274102  Network.dyn_peer[51]  lookupTimeSig:vector  ETV
vector 274105  Network.dyn_peer[52]  lookupHopsSig:vector  ETV
vector 274104  Network.dyn_peer[52]  lookupTimeSig:vector  ETV
vector 274107  Network.dyn_peer[53]  lookupHopsSig:vector  ETV
vector 274106  Network.dyn_peer[53]  lookupTimeSig:vector  ETV
vector 274109  Network.dyn_peer[54]  lookupHopsSig:vector  ETV
vector 274108  Network.dyn_peer[54]  lookupTimeSig:vector  ETV
vector 274111  Network.dyn_peer[55]  lookupHopsSig:vector  ETV
vector 274110  Network.dyn_peer[55]  lookupTimeSig:vector  ETV
vector 274113  Network.dyn_peer[56]  lookupHopsSig:vector  ETV
vector 274112  Network.dyn_peer[56]  lookupTimeSig:vector  ETV
vector 274115  Network.dyn_peer[57]  lookupHopsSig:vector  ETV
vector 274114  Network.dyn_peer[57]  lookupTimeSig:vector  ETV
vector 274117  Network.dyn_peer[58]  lookupHopsSig:vector  ETV
vector 274116  Network.dyn_peer[58]  lookupTimeSig:vector  ETV
vector 274119  Network.dyn_peer[59]  lookupHopsSig:vector  ETV
vector 274118  Network.dyn_peer[59]  lookupTimeSig:vector  ETV
vector 274121  Network.dyn_peer[60]  lookupHopsSig:vector  ETV
vector 274120  Network.dyn_peer[60]  lookupTimeSig:vector  ETV
vector 274123  Network.dyn_peer[61]  lookupHopsSig:vector  ETV
vector 274122  Network.dyn_peer[61]  lookupTimeSig:vector  ETV
vector 274125  Network.dyn_peer[62]  lookupHopsSig:vector  ETV
vector 274124  Network.dyn_peer[62]  lookupTimeSig:vector  ETV
vector 274127  Network.dyn_peer[63]  lookupHopsSig:vector  ETV
vector 274126  Network.dyn_peer[63]  lookupTimeSig:vector  ETV
vector 274129  Network.dyn_peer[64]  lookupHopsSig:vector  ETV
vector 274128  Network.dyn_peer[64]  lookupTimeSig:vector  ETV
vector 274131  Network.dyn_peer[65]  lookupHopsSig:vector  ETV
vector 274130  Network.dyn_peer[65]  lookupTimeSig:vector  ETV
vector 274133  Network.dyn_peer[66]  lookupHopsSig:vector  ETV
vector 274132  Network.dyn_peer[66]  lookupTimeSig:vector  ETV
vector 274135  Network.dyn_peer[67]  lookupHopsSig:vector  ETV
vector 274134  Network.dyn_peer[67]  lookupTimeSig:vector  ETV
vector 274137  Network.dyn_peer[68]  lookupHopsSig:vector  ETV
vector 274136  Network.dyn_peer[68]  lookupTimeSig:vector  ETV
vector 274139  Network.dyn_peer[69]  lookupHopsSig:vector  ETV
vector 274138  Network.dyn_peer[69]  lookupTimeSig:vector  ETV
vector 274141  Network.dyn_peer[70]  lookupHopsSig:vector  ETV
vector 274140  Network.dyn_peer[70]  lookupTimeSig:vector  ETV
vector 274143  Network.dyn_peer[71]  lookupHopsSig:vector  ETV
vector 274142  Network.dyn_peer[71]  lookupTimeSig:vector  ETV
vector 274145  Network.dyn_peer[72]  lookupHopsSig:vector  ETV
vector 274144  Network.dyn_peer[72]  lookupTimeSig:vector  ETV
vector 274147  Network.dyn_peer[73]  lookupHopsSig:vector  ETV
vector 274146  Network.dyn_peer[73]  lookupTimeSig:vector  ETV
vector 274149  Network.dyn_peer[74]  lookupHopsSig:vector  ETV
vector 274148  Network.dyn_peer[74]  lookupTimeSig:vector  ETV
vector 274151  Network.dyn_peer[75]  lookupHopsSig:vector  ETV
vector 274150  Network.dyn_peer[75]  lookupTimeSig:vector  ETV
vector 274153  Network.dyn_peer[76]  lookupHopsSig:vector  ETV
vector 274152  Network.dyn_peer[76]  lookupTimeSig:vector  ETV
vector 274155  Network.dyn_peer[77]  lookupHopsSig:vector  ETV
vector 274154  Network.dyn_peer[77]  lookupTimeSig:vector  ETV
vector 274157  Network.dyn_peer[78]  lookupHopsSig:vector  ETV
vector 274156  Network.dyn_peer[78]  lookupTimeSig:vector  ETV
vector 274159  Network.dyn_peer[79]  lookupHopsSig:vector  ETV
vector 274158  Network.dyn_peer[79]  lookupTimeSig:vector  ETV
vector 274161  Network.dyn_peer[80]  lookupHopsSig:vector  ETV
vector 274160  Network.dyn_peer[80]  lookupTimeSig:vector  ETV
vector 274163  Network.dyn_peer[81]  lookupHopsSig:vector  ETV
vector 274162  Network.dyn_peer[81]  lookupTimeSig:vector  ETV
vector 274165  Network.dyn_peer[82]  lookupHopsSig:vector  ETV
vector 274164  Network.dyn_peer[82]  lookupTimeSig:vector  ETV
vector 274167  Network.dyn_peer[83]  lookupHopsSig:vector  ETV
vector 274166  Network.dyn_peer[83]  lookupTimeSig:vector  ETV
vector 274171  Network.dyn_peer[85]  lookupHopsSig:vector  ETV
vector 274170  Network.dyn_peer[85]  lookupTimeSig:vector  ETV
vector 274169  Network.dyn_peer[84]  lookupHopsSig:vector  ETV
vector 274168  Network.dyn_peer[84]  lookupTimeSig:vector  ETV
vector 274173  Network.dyn_peer[86]  lookupHopsSig:vector  ETV
vector 274172  Network.dyn_peer[86]  lookupTimeSig:vector  ETV
vector 274175  Network.dyn_peer[87]  lookupHopsSig:vector  ETV
vector 274174  Network.dyn_peer[87]  lookupTimeSig:vector  ETV
vector 274177  Network.dyn_peer[88]  lookupHopsSig:vector  ETV
vector 274176  Network.dyn_peer[88]  lookupTimeSig:vector  ETV
vector 274179  Network.dyn_peer[89]  lookupHopsSig:vector  ETV
vector 274178  Network.dyn_peer[89]  lookupTimeSig:vector  ETV
vector 274181  Network.dyn_peer[90]  lookupHopsSig:vector  ETV
vector 274180  Network.dyn_peer[90]  lookupTimeSig:vector  ETV
vector 274183  Network.dyn_peer[91]  lookupHopsSig:vector  ETV
vector 274182  Network.dyn_peer[91]  lookupTimeSig:vector  ETV
vector 274185  Network.dyn_peer[92]  lookupHopsSig:vector  ETV
vector 274184  Network.dyn_peer[92]  lookupTimeSig:vector  ETV
vector 274187  Network.dyn_peer[93]  lookupHopsSig:vector  ETV
vector 274186  Network.dyn_peer[93]  lookupTimeSig:vector  ETV
vector 274189  Network.dyn_peer[94]  lookupHopsSig:vector  ETV
vector 274188  Network.dyn_peer[94]  lookupTimeSig:vector  ETV
vector 274191  Network.dyn_peer[95]  lookupHopsSig:vector  ETV
vector 274190  Network.dyn_peer[95]  lookupTimeSig:vector  ETV
vector 274193  Network.dyn_peer[96]  lookupHopsSig:vector  ETV
vector 274192  Network.dyn_peer[96]  lookupTimeSig:vector  ETV
vector 274195  Network.dyn_peer[97]  lookupHopsSig:vector  ETV
vector 274194  Network.dyn_peer[97]  lookupTimeSig:vector  ETV
vector 274197  Network.dyn_peer[98]  lookupHopsSig:vector  ETV
vector 274196  Network.dyn_peer[98]  lookupTimeSig:vector  ETV
vector 274199  Network.dyn_peer[99]  lookupHopsSig:vector  ETV
vector 274198  Network.dyn_peer[99]  lookupTimeSig:vector  ETV
vector 274201  Network.dyn_peer[100]  lookupHopsSig:vector  ETV
vector 274200  Network.dyn_peer[100]  lookupTimeSig:vector  ETV
vector 274203  Network.dyn_peer[101]  lookupHopsSig:vector  ETV
vector 274202  Network.dyn_peer[101]  lookupTimeSig:vector  ETV
vector 274205  Network.dyn_peer[102]  lookupHopsSig:vector  ETV
vector 274204  Network.dyn_peer[102]  lookupTimeSig:vector  ETV
vector 274207  Network.dyn_peer[103]  lookupHopsSig:vector  ETV
vector 274206  Network.dyn_peer[103]  lookupTimeSig:vector  ETV
vector 274209  Network.dyn_peer[104]  lookupHopsSig:vector  ETV
vector 274208  Network.dyn_peer[104]  lookupTimeSig:vector  ETV
vector 274211  Network.dyn_peer[105]  lookupHopsSig:vector  ETV
vector 274210  Network.dyn_peer[105]  lookupTimeSig:vector  ETV
vector 274213  Network.dyn_peer[106]  lookupHopsSig:vector  ETV
vector 274212  Network.dyn_peer[106]  lookupTimeSig:vector  ETV
vector 274215  Network.dyn_peer[107]  lookupHopsSig:vector  ETV
vector 274214  Network.dyn_peer[107]  lookupTimeSig:vector  ETV
vector 274217  Network.dyn_peer[108]  lookupHopsSig:vector  ETV
vector 274216  Network.dyn_peer[108]  lookupTimeSig:vector  ETV
vector 274219  Network.dyn_peer[109]  lookupHopsSig:vector  ETV
vector 274218  Network.dyn_peer[109]  lookupTimeSig:vector  ETV
vector 274221  Network.dyn_peer[110]  lookupHopsSig:vector  ETV
vector 274220  Network.dyn_peer[110]  lookupTimeSig:vector  ETV
vector 274223  Network.dyn_peer[111]  lookupHopsSig:vector  ETV
vector 274222  Network.dyn_peer[111]  lookupTimeSig:vector  ETV
vector 274225  Network.dyn_peer[112]  lookupHopsSig:vector  ETV
vector 274224  Network.dyn_peer[112]  lookupTimeSig:vector  ETV
vector 274227  Network.dyn_peer[113]  lookupHopsSig:vector  ETV
vector 274226  Network.dyn_peer[113]  lookupTimeSig:vector  ETV
vector 274229  Network.dyn_peer[114]  lookupHopsSig:vector  ETV
vector 274228  Network.dyn_peer[114]  lookupTimeSig:vector  ETV
vector 274231  Network.dyn_peer[115]  lookupHopsSig:vector  ETV
vector 274230  Network.dyn_peer[115]  lookupTimeSig:vector  ETV
vector 274233  Network.dyn_peer[116]  lookupHopsSig:vector  ETV
vector 274232  Network.dyn_peer[116]  lookupTimeSig:vector  ETV
vector 274235  Network.dyn_peer[117]  lookupHopsSig:vector  ETV
vector 274234  Network.dyn_peer[117]  lookupTimeSig:vector  ETV
vector 274237  Network.dyn_peer[118]  lookupHopsSig:vector  ETV
vector 274236  Network.dyn_peer[118]  lookupTimeSig:vector  ETV
vector 274239  Network.dyn_peer[119]  lookupHopsSig:vector  ETV
vector 274238  Network.dyn_peer[119]  lookupTimeSig:vector  ETV
vector 274241  Network.dyn_peer[120]  lookupHopsSig:vector  ETV
vector 274240  Network.dyn_peer[120]  lookupTimeSig:vector  ETV
vector 274243  Network.dyn_peer[121]  lookupHopsSig:vector  ETV
vector 274242  Network.dyn_peer[121]  lookupTimeSig:vector  ETV
vector 274245  Network.dyn_peer[122]  lookupHopsSig:vector  ETV
vector 274244  Network.dyn_peer[122]  lookupTimeSig:vector  ETV
vector 274247  Network.dyn_peer[123]  lookupHopsSig:vector  ETV
vector 274246  Network.dyn_peer[123]  lookupTimeSig:vector  ETV
vector 274249  Network.dyn_peer[124]  lookupHopsSig:vector  ETV
vector 274248  Network.dyn_peer[124]  lookupTimeSig:vector  ETV
vector 274251  Network.dyn_peer[125]  lookupHopsSig:vector  ETV
vector 274250  Network.dyn_peer[125]  lookupTimeSig:vector  ETV
vector 274253  Network.dyn_peer[126]  lookupHopsSig:vector  ETV
vector 274252  Network.dyn_peer[126]  lookupTimeSig:vector  ETV
vector 274259  Network.dyn_peer[129]  lookupHopsSig:vector  ETV
vector 274258  Network.dyn_peer[129]  lookupTimeSig:vector  ETV
vector 274257  Network.dyn_peer[128]  lookupHopsSig:vector  ETV
vector 274256  Network.dyn_peer[128]  lookupTimeSig:vector  ETV
vector 274261  Network.dyn_peer[130]  lookupHopsSig:vector  ETV
vector 274260  Network.dyn_peer[130]  lookupTimeSig:vector  ETV
vector 274255  Network.dyn_peer[127]  lookupHopsSig:vector  ETV
vector 274254  Network.dyn_peer[127]  lookupTimeSig:vector  ETV
vector 274263  Network.dyn_peer[131]  lookupHopsSig:vector  ETV
vector 274262  Network.dyn_peer[131]  lookupTimeSig:vector  ETV
vector 274265  Network.dyn_peer[132]  lookupHopsSig:vector  ETV
vector 274264  Network.dyn_peer[132]  lookupTimeSig:vector  ETV
vector 274267  Network.dyn_peer[133]  lookupHopsSig:vector  ETV
vector 274266  Network.dyn_peer[133]  lookupTimeSig:vector  ETV
vector 274269  Network.dyn_peer[134]  lookupHopsSig:vector  ETV
vector 274268  Network.dyn_peer[134]  lookupTimeSig:vector  ETV
vector 274271  Network.dyn_peer[135]  lookupHopsSig:vector  ETV
vector 274270  Network.dyn_peer[135]  lookupTimeSig:vector  ETV
vector 274273  Network.dyn_peer[136]  lookupHopsSig:vector  ETV
vector 274272  Network.dyn_peer[136]  lookupTimeSig:vector  ETV
vector 274275  Network.dyn_peer[137]  lookupHopsSig:vector  ETV
vector 274274  Network.dyn_peer[137]  lookupTimeSig:vector  ETV
vector 274277  Network.dyn_peer[138]  lookupHopsSig:vector  ETV
vector 274276  Network.dyn_peer[138]  lookupTimeSig:vector  ETV
vector 274279  Network.dyn_peer[139]  lookupHopsSig:vector  ETV
vector 274278  Network.dyn_peer[139]  lookupTimeSig:vector  ETV
vector 274283  Network.dyn_peer[141]  lookupHopsSig:vector  ETV
vector 274282  Network.dyn_peer[141]  lookupTimeSig:vector  ETV
vector 274285  Network.dyn_peer[142]  lookupHopsSig:vector  ETV
vector 274284  Network.dyn_peer[142]  lookupTimeSig:vector  ETV
vector 274281  Network.dyn_peer[140]  lookupHopsSig:vector  ETV
vector 274280  Network.dyn_peer[140]  lookupTimeSig:vector  ETV
vector 274287  Network.dyn_peer[143]  lookupHopsSig:vector  ETV
vector 274286  Network.dyn_peer[143]  lookupTimeSig:vector  ETV
vector 274289  Network.dyn_peer[144]  lookupHopsSig:vector  ETV
vector 274288  Network.dyn_peer[144]  lookupTimeSig:vector  ETV
vector 274291  Network.dyn_peer[145]  lookupHopsSig:vector  ETV
vector 274290  Network.dyn_peer[145]  lookupTimeSig:vector  ETV
vector 274293  Network.dyn_peer[146]  lookupHopsSig:vector  ETV
vector 274292  Network.dyn_peer[146]  lookupTimeSig:vector  ETV
vector 274295  Network.dyn_peer[147]  lookupHopsSig:vector  ETV
vector 274294  Network.dyn_peer[147]  lookupTimeSig:vector  ETV
vector 274297  Network.dyn_peer[148]  lookupHopsSig:vector  ETV
vector 274296  Network.dyn_peer[148]  lookupTimeSig:vector  ETV
vector 274299  Network.dyn_peer[149]  lookupHopsSig:vector  ETV
vector 274298  Network.dyn_peer[149]  lookupTimeSig:vector  ETV
vector 274301  Network.dyn_peer[150]  lookupHopsSig:vector  ETV
vector 274300  Network.dyn_peer[150]  lookupTimeSig:vector  ETV
vector 274303  Network.dyn_peer[151]  lookupHopsSig:vector  ETV
vector 274302  Network.dyn_peer[151]  lookupTimeSig:vector  ETV
vector 274305  Network.dyn_peer[152]  lookupHopsSig:vector  ETV
vector 274304  Network.dyn_peer[152]  lookupTimeSig:vector  ETV
vector 274307  Network.dyn_peer[153]  lookupHopsSig:vector  ETV
vector 274306  Network.dyn_peer[153]  lookupTimeSig:vector  ETV
vector 274309  Network.dyn_peer[154]  lookupHopsSig:vector  ETV
vector 274308  Network.dyn_peer[154]  lookupTimeSig:vector  ETV
vector 274311  Network.dyn_peer[155]  lookupHopsSig:vector  ETV
vector 274310  Network.dyn_peer[155]  lookupTimeSig:vector  ETV
vector 274313  Network.dyn_peer[156]  lookupHopsSig:vector  ETV
vector 274312  Network.dyn_peer[156]  lookupTimeSig:vector  ETV
vector 274315  Network.dyn_peer[157]  lookupHopsSig:vector  ETV
vector 274314  Network.dyn_peer[157]  lookupTimeSig:vector  ETV
vector 274319  Network.dyn_peer[159]  lookupHopsSig:vector  ETV
vector 274318  Network.dyn_peer[159]  lookupTimeSig:vector  ETV
vector 274317  Network.dyn_peer[158]  lookupHopsSig:vector  ETV
vector 274316  Network.dyn_peer[158]  lookupTimeSig:vector  ETV
vector 274321  Network.dyn_peer[160]  lookupHopsSig:vector  ETV
vector 274320  Network.dyn_peer[160]  lookupTimeSig:vector  ETV
vector 274325  Network.dyn_peer[162]  lookupHopsSig:vector  ETV
vector 274324  Network.dyn_peer[162]  lookupTimeSig:vector  ETV
vector 274327  Network.dyn_peer[163]  lookupHopsSig:vector  ETV
vector 274326  Network.dyn_peer[163]  lookupTimeSig:vector  ETV
vector 274323  Network.dyn_peer[161]  lookupHopsSig:vector  ETV
vector 274322  Network.dyn_peer[161]  lookupTimeSig:vector  ETV
vector 274329  Network.dyn_peer[164]  lookupHopsSig:vector  ETV
vector 274328  Network.dyn_peer[164]  lookupTimeSig:vector  ETV
vector 274331  Network.dyn_peer[165]  lookupHopsSig:vector  ETV
vector 274330  Network.dyn_peer[165]  lookupTimeSig:vector  ETV
vector 274333  Network.dyn_peer[166]  lookupHopsSig:vector  ETV
vector 274332  Network.dyn_peer[166]  lookupTimeSig:vector  ETV
vector 274335  Network.dyn_peer[167]  lookupHopsSig:vector  ETV
vector 274334  Network.dyn_peer[167]  lookupTimeSig:vector  ETV
vector 274339  Network.dyn_peer[169]  lookupHopsSig:vector  ETV
vector 274338  Network.dyn_peer[169]  lookupTimeSig:vector  ETV
vector 274337  Network.dyn_peer[168]  lookupHopsSig:vector  ETV
vector 274336  Network.dyn_peer[168]  lookupTimeSig:vector  ETV
vector 274343  Network.dyn_peer[171]  lookupHopsSig:vector  ETV
vector 274342  Network.dyn_peer[171]  lookupTimeSig:vector  ETV
vector 274341  Network.dyn_peer[170]  lookupHopsSig:vector  ETV
vector 274340  Network.dyn_peer[170]  lookupTimeSig:vector  ETV
vector 274345  Network.dyn_peer[172]  lookupHopsSig:vector  ETV
vector 274344  Network.dyn_peer[172]  lookupTimeSig:vector  ETV
vector 274347  Network.dyn_peer[173]  lookupHopsSig:vector  ETV
vector 274346  Network.dyn_peer[173]  lookupTimeSig:vector  ETV
vector 274349  Network.dyn_peer[174]  lookupHopsSig:vector  ETV
vector 274348  Network.dyn_peer[174]  lookupTimeSig:vector  ETV
vector 274351  Network.dyn_peer[175]  lookupHopsSig:vector  ETV
vector 274350  Network.dyn_peer[175]  lookupTimeSig:vector  ETV
vector 274353  Network.dyn_peer[176]  lookupHopsSig:vector  ETV
vector 274352  Network.dyn_peer[176]  lookupTimeSig:vector  ETV
vector 274355  Network.dyn_peer[177]  lookupHopsSig:vector  ETV
vector 274354  Network.dyn_peer[177]  lookupTimeSig:vector  ETV
vector 274357  Network.dyn_peer[178]  lookupHopsSig:vector  ETV
vector 274356  Network.dyn_peer[178]  lookupTimeSig:vector  ETV
vector 274359  Network.dyn_peer[179]  lookupHopsSig:vector  ETV
vector 274358  Network.dyn_peer[179]  lookupTimeSig:vector  ETV
vector 274361  Network.dyn_peer[180]  lookupHopsSig:vector  ETV
vector 274360  Network.dyn_peer[180]  lookupTimeSig:vector  ETV
vector 274363  Network.dyn_peer[181]  lookupHopsSig:vector  ETV
vector 274362  Network.dyn_peer[181]  lookupTimeSig:vector  ETV
vector 274365  Network.dyn_peer[182]  lookupHopsSig:vector  ETV
vector 274364  Network.dyn_peer[182]  lookupTimeSig:vector  ETV
vector 274367  Network.dyn_peer[183]  lookupHopsSig:vector  ETV
vector 274366  Network.dyn_peer[183]  lookupTimeSig:vector  ETV
vector 274371  Network.dyn_peer[185]  lookupHopsSig:vector  ETV
vector 274370  Network.dyn_peer[185]  lookupTimeSig:vector  ETV
vector 274369  Network.dyn_peer[184]  lookupHopsSig:vector  ETV
vector 274368  Network.dyn_peer[184]  lookupTimeSig:vector  ETV
vector 274375  Network.dyn_peer[187]  lookupHopsSig:vector  ETV
vector 274374  Network.dyn_peer[187]  lookupTimeSig:vector  ETV
vector 274373  Network.dyn_peer[186]  lookupHopsSig:vector  ETV
vector 274372  Network.dyn_peer[186]  lookupTimeSig:vector  ETV
vector 274377  Network.dyn_peer[188]  lookupHopsSig:vector  ETV
vector 274376  Network.dyn_peer[188]  lookupTimeSig:vector  ETV
vector 274379  Network.dyn_peer[189]  lookupHopsSig:vector  ETV
vector 274378  Network.dyn_peer[189]  lookupTimeSig:vector  ETV
vector 274381  Network.dyn_peer[190]  lookupHopsSig:vector  ETV
vector 274380  Network.dyn_peer[190]  lookupTimeSig:vector  ETV
vector 274385  Network.dyn_peer[192]  lookupHopsSig:vector  ETV
vector 274384  Network.dyn_peer[192]  lookupTimeSig:vector  ETV
vector 274383  Network.dyn_peer[191]  lookupHopsSig:vector  ETV
vector 274382  Network.dyn_peer[191]  lookupTimeSig:vector  ETV
vector 274387  Network.dyn_peer[193]  lookupHopsSig:vector  ETV
vector 274386  Network.dyn_peer[193]  lookupTimeSig:vector  ETV
vector 274389  Network.dyn_peer[194]  lookupHopsSig:vector  ETV
vector 274388  Network.dyn_peer[194]  lookupTimeSig:vector  ETV
vector 274391  Network.dyn_peer[195]  lookupHopsSig:vector  ETV
vector 274390  Network.dyn_peer[195]  lookupTimeSig:vector  ETV
vector 274395  Network.dyn_peer[197]  lookupHopsSig:vector  ETV
vector 274394  Network.dyn_peer[197]  lookupTimeSig:vector  ETV
vector 274393  Network.dyn_peer[196]  lookupHopsSig:vector  ETV
vector 274392  Network.dyn_peer[196]  lookupTimeSig:vector  ETV
vector 274397  Network.dyn_peer[198]  lookupHopsSig:vector  ETV
vector 274396  Network.dyn_peer[198]  lookupTimeSig:vector  ETV
vector 274399  Network.dyn_peer[199]  lookupHopsSig:vector  ETV
vector 274398  Network.dyn_peer[199]  lookupTimeSig:vector  ETV
vector 274401  Network.dyn_peer[200]  lookupHopsSig:vector  ETV
vector 274400  Network.dyn_peer[200]  lookupTimeSig:vector  ETV
vector 274403  Network.dyn_peer[201]  lookupHopsSig:vector  ETV
vector 274402  Network.dyn_peer[201]  lookupTimeSig:vector  ETV
vector 274405  Network.dyn_peer[202]  lookupHopsSig:vector  ETV
vector 274404  Network.dyn_peer[202]  lookupTimeSig:vector  ETV
vector 274407  Network.dyn_peer[203]  lookupHopsSig:vector  ETV
vector 274406  Network.dyn_peer[203]  lookupTimeSig:vector  ETV
vector 274409  Network.dyn_peer[204]  lookupHopsSig:vector  ETV
vector 274408  Network.dyn_peer[204]  lookupTimeSig:vector  ETV
vector 274411  Network.dyn_peer[205]  lookupHopsSig:vector  ETV
vector 274410  Network.dyn_peer[205]  lookupTimeSig:vector  ETV
vector 274415  Network.dyn_peer[207]  lookupHopsSig:vector  ETV
vector 274414  Network.dyn_peer[207]  lookupTimeSig:vector  ETV
vector 274417  Network.dyn_peer[208]  lookupHopsSig:vector  ETV
vector 274416  Network.dyn_peer[208]  lookupTimeSig:vector  ETV
vector 274413  Network.dyn_peer[206]  lookupHopsSig:vector  ETV
vector 274412  Network.dyn_peer[206]  lookupTimeSig:vector  ETV
vector 274421  Network.dyn_peer[210]  lookupHopsSig:vector  ETV
vector 274420  Network.dyn_peer[210]  lookupTimeSig:vector  ETV
vector 274423  Network.dyn_peer[211]  lookupHopsSig:vector  ETV
vector 274422  Network.dyn_peer[211]  lookupTimeSig:vector  ETV
vector 274419  Network.dyn_peer[209]  lookupHopsSig:vector  ETV
vector 274418  Network.dyn_peer[209]  lookupTimeSig:vector  ETV
vector 274427  Network.dyn_peer[213]  lookupHopsSig:vector  ETV
vector 274426  Network.dyn_peer[213]  lookupTimeSig:vector  ETV
vector 274429  Network.dyn_peer[214]  lookupHopsSig:vector  ETV
vector 274428  Network.dyn_peer[214]  lookupTimeSig:vector  ETV
vector 274425  Network.dyn_peer[212]  lookupHopsSig:vector  ETV
vector 274424  Network.dyn_peer[212]  lookupTimeSig:vector  ETV
vector 274431  Network.dyn_peer[215]  lookupHopsSig:vector  ETV
vector 274430  Network.dyn_peer[215]  lookupTimeSig:vector  ETV
vector 274433  Network.dyn_peer[216]  lookupHopsSig:vector  ETV
vector 274432  Network.dyn_peer[216]  lookupTimeSig:vector  ETV
vector 274437  Network.dyn_peer[218]  lookupHopsSig:vector  ETV
vector 274436  Network.dyn_peer[218]  lookupTimeSig:vector  ETV
vector 274439  Network.dyn_peer[219]  lookupHopsSig:vector  ETV
vector 274438  Network.dyn_peer[219]  lookupTimeSig:vector  ETV
vector 274435  Network.dyn_peer[217]  lookupHopsSig:vector  ETV
vector 274434  Network.dyn_peer[217]  lookupTimeSig:vector  ETV
vector 274441  Network.dyn_peer[220]  lookupHopsSig:vector  ETV
vector 274440  Network.dyn_peer[220]  lookupTimeSig:vector  ETV
vector 274443  Network.dyn_peer[221]  lookupHopsSig:vector  ETV
vector 274442  Network.dyn_peer[221]  lookupTimeSig:vector  ETV
vector 274445  Network.dyn_peer[222]  lookupHopsSig:vector  ETV
vector 274444  Network.dyn_peer[222]  lookupTimeSig:vector  ETV
vector 274449  Network.dyn_peer[224]  lookupHopsSig:vector  ETV
vector 274448  Network.dyn_peer[224]  lookupTimeSig:vector  ETV
vector 274447  Network.dyn_peer[223]  lookupHopsSig:vector  ETV
vector 274446  Network.dyn_peer[223]  lookupTimeSig:vector  ETV
vector 274451  Network.dyn_peer[225]  lookupHopsSig:vector  ETV
vector 274450  Network.dyn_peer[225]  lookupTimeSig:vector  ETV
vector 274453  Network.dyn_peer[226]  lookupHopsSig:vector  ETV
vector 274452  Network.dyn_peer[226]  lookupTimeSig:vector  ETV
vector 274455  Network.dyn_peer[227]  lookupHopsSig:vector  ETV
vector 274454  Network.dyn_peer[227]  lookupTimeSig:vector  ETV
vector 274457  Network.dyn_peer[228]  lookupHopsSig:vector  ETV
vector 274456  Network.dyn_peer[228]  lookupTimeSig:vector  ETV
vector 274459  Network.dyn_peer[229]  lookupHopsSig:vector  ETV
vector 274458  Network.dyn_peer[229]  lookupTimeSig:vector  ETV
vector 274465  Network.dyn_peer[232]  lookupHopsSig:vector  ETV
vector 274464  Network.dyn_peer[232]  lookupTimeSig:vector  ETV
vector 274461  Network.dyn_peer[230]  lookupHopsSig:vector  ETV
vector 274460  Network.dyn_peer[230]  lookupTimeSig:vector  ETV