file 736108 1369168926                                          
version 2
run Stability-211-20130521-22:42:02-23591
attr configname Stability
attr datetime 20130521-22:42:02
attr experiment Stability
attr inifile omnetpp.ini
attr iterationvars $0=0.0625
attr iterationvars2 "$0=0.0625, $repetition=1"
attr measurement $0=0.0625
attr network Network
attr processid 23591
attr repetition 1
attr replication #1
attr resultdir results
attr runnumber 211
attr seedset 211

vector 422001  Network.dyn_peer[0]  lookupHopsSig:vector  ETV
vector 422000  Network.dyn_peer[0]  lookupTimeSig:vector  ETV
vector 422009  Network.dyn_peer[4]  lookupHopsSig:vector  ETV
vector 422008  Network.dyn_peer[4]  lookupTimeSig:vector  ETV
vector 422007  Network.dyn_peer[3]  lookupHopsSig:vector  ETV
vector 422006  Network.dyn_peer[3]  lookupTimeSig:vector  ETV
vector 422003  Network.dyn_peer[1]  lookupHopsSig:vector  ETV
vector 422002  Network.dyn_peer[1]  lookupTimeSig:vector  ETV
vector 422013  Network.dyn_peer[6]  lookupHopsSig:vector  ETV
vector 422012  Network.dyn_peer[6]  lookupTimeSig:vector  ETV
vector 422017  Network.dyn_peer[8]  lookupHopsSig:vector  ETV
vector 422016  Network.dyn_peer[8]  lookupTimeSig:vector  ETV
vector 422011  Network.dyn_peer[5]  lookupHopsSig:vector  ETV
vector 422010  Network.dyn_peer[5]  lookupTimeSig:vector  ETV
vector 422005  Network.dyn_peer[2]  lookupHopsSig:vector  ETV
vector 422004  Network.dyn_peer[2]  lookupTimeSig:vector  ETV
vector 422015  Network.dyn_peer[7]  lookupHopsSig:vector  ETV
vector 422014  Network.dyn_peer[7]  lookupTimeSig:vector  ETV
vector 422021  Network.dyn_peer[10]  lookupHopsSig:vector  ETV
vector 422020  Network.dyn_peer[10]  lookupTimeSig:vector  ETV
vector 422019  Network.dyn_peer[9]  lookupHopsSig:vector  ETV
vector 422018  Network.dyn_peer[9]  lookupTimeSig:vector  ETV
vector 422023  Network.dyn_peer[11]  lookupHopsSig:vector  ETV
vector 422022  Network.dyn_peer[11]  lookupTimeSig:vector  ETV
vector 422027  Network.dyn_peer[13]  lookupHopsSig:vector  ETV
vector 422026  Network.dyn_peer[13]  lookupTimeSig:vector  ETV
vector 422025  Network.dyn_peer[12]  lookupHopsSig:vector  ETV
vector 422024  Network.dyn_peer[12]  lookupTimeSig:vector  ETV
vector 422029  Network.dyn_peer[14]  lookupHopsSig:vector  ETV
vector 422028  Network.dyn_peer[14]  lookupTimeSig:vector  ETV
vector 422039  Network.dyn_peer[19]  lookupHopsSig:vector  ETV
vector 422038  Network.dyn_peer[19]  lookupTimeSig:vector  ETV
vector 422031  Network.dyn_peer[15]  lookupHopsSig:vector  ETV
vector 422030  Network.dyn_peer[15]  lookupTimeSig:vector  ETV
vector 422035  Network.dyn_peer[17]  lookupHopsSig:vector  ETV
vector 422034  Network.dyn_peer[17]  lookupTimeSig:vector  ETV
vector 422033  Network.dyn_peer[16]  lookupHopsSig:vector  ETV
vector 422032  Network.dyn_peer[16]  lookupTimeSig:vector  ETV
vector 422041  Network.dyn_peer[20]  lookupHopsSig:vector  ETV
vector 422040  Network.dyn_peer[20]  lookupTimeSig:vector  ETV
vector 422043  Network.dyn_peer[21]  lookupHopsSig:vector  ETV
vector 422042  Network.dyn_peer[21]  lookupTimeSig:vector  ETV
vector 422045  Network.dyn_peer[22]  lookupHopsSig:vector  ETV
vector 422044  Network.dyn_peer[22]  lookupTimeSig:vector  ETV
vector 422047  Network.dyn_peer[23]  lookupHopsSig:vector  ETV
vector 422046  Network.dyn_peer[23]  lookupTimeSig:vector  ETV
vector 422037  Network.dyn_peer[18]  lookupHopsSig:vector  ETV
vector 422036  Network.dyn_peer[18]  lookupTimeSig:vector  ETV
vector 422053  Network.dyn_peer[26]  lookupHopsSig:vector  ETV
vector 422052  Network.dyn_peer[26]  lookupTimeSig:vector  ETV
vector 422057  Network.dyn_peer[28]  lookupHopsSig:vector  ETV
vector 422056  Network.dyn_peer[28]  lookupTimeSig:vector  ETV
vector 422059  Network.dyn_peer[29]  lookupHopsSig:vector  ETV
vector 422058  Network.dyn_peer[29]  lookupTimeSig:vector  ETV
vector 422049  Network.dyn_peer[24]  lookupHopsSig:vector  ETV
vector 422048  Network.dyn_peer[24]  lookupTimeSig:vector  ETV
vector 422065  Network.dyn_peer[32]  lookupHopsSig:vector  ETV
vector 422064  Network.dyn_peer[32]  lookupTimeSig:vector  ETV
vector 422055  Network.dyn_peer[27]  lookupHopsSig:vector  ETV
vector 422054  Network.dyn_peer[27]  lookupTimeSig:vector  ETV
vector 422067  Network.dyn_peer[33]  lookupHopsSig:vector  ETV
vector 422066  Network.dyn_peer[33]  lookupTimeSig:vector  ETV
vector 422063  Network.dyn_peer[31]  lookupHopsSig:vector  ETV
vector 422062  Network.dyn_peer[31]  lookupTimeSig:vector  ETV
vector 422051  Network.dyn_peer[25]  lookupHopsSig:vector  ETV
vector 422050  Network.dyn_peer[25]  lookupTimeSig:vector  ETV
vector 422061  Network.dyn_peer[30]  lookupHopsSig:vector  ETV
vector 422060  Network.dyn_peer[30]  lookupTimeSig:vector  ETV
vector 422077  Network.dyn_peer[38]  lookupHopsSig:vector  ETV
vector 422076  Network.dyn_peer[38]  lookupTimeSig:vector  ETV
vector 422081  Network.dyn_peer[40]  lookupHopsSig:vector  ETV
vector 422080  Network.dyn_peer[40]  lookupTimeSig:vector  ETV
vector 422069  Network.dyn_peer[34]  lookupHopsSig:vector  ETV
vector 422068  Network.dyn_peer[34]  lookupTimeSig:vector  ETV
vector 422073  Network.dyn_peer[36]  lookupHopsSig:vector  ETV
vector 422072  Network.dyn_peer[36]  lookupTimeSig:vector  ETV
vector 422071  Network.dyn_peer[35]  lookupHopsSig:vector  ETV
vector 422070  Network.dyn_peer[35]  lookupTimeSig:vector  ETV
vector 422079  Network.dyn_peer[39]  lookupHopsSig:vector  ETV
vector 422078  Network.dyn_peer[39]  lookupTimeSig:vector  ETV
vector 422083  Network.dyn_peer[41]  lookupHopsSig:vector  ETV
vector 422082  Network.dyn_peer[41]  lookupTimeSig:vector  ETV
vector 422087  Network.dyn_peer[43]  lookupHopsSig:vector  ETV
vector 422086  Network.dyn_peer[43]  lookupTimeSig:vector  ETV
vector 422085  Network.dyn_peer[42]  lookupHopsSig:vector  ETV
vector 422084  Network.dyn_peer[42]  lookupTimeSig:vector  ETV
vector 422099  Network.dyn_peer[49]  lookupHopsSig:vector  ETV
vector 422098  Network.dyn_peer[49]  lookupTimeSig:vector  ETV
vector 422075  Network.dyn_peer[37]  lookupHopsSig:vector  ETV
vector 422074  Network.dyn_peer[37]  lookupTimeSig:vector  ETV
vector 422093  Network.dyn_peer[46]  lookupHopsSig:vector  ETV
vector 422092  Network.dyn_peer[46]  lookupTimeSig:vector  ETV
vector 422097  Network.dyn_peer[48]  lookupHopsSig:vector  ETV
vector 422096  Network.dyn_peer[48]  lookupTimeSig:vector  ETV
vector 422091  Network.dyn_peer[45]  lookupHopsSig:vector  ETV
vector 422090  Network.dyn_peer[45]  lookupTimeSig:vector  ETV
vector 422103  Network.dyn_peer[51]  lookupHopsSig:vector  ETV
vector 422102  Network.dyn_peer[51]  lookupTimeSig:vector  ETV
vector 422089  Network.dyn_peer[44]  lookupHopsSig:vector  ETV
vector 422088  Network.dyn_peer[44]  lookupTimeSig:vector  ETV
vector 422105  Network.dyn_peer[52]  lookupHopsSig:vector  ETV
vector 422104  Network.dyn_peer[52]  lookupTimeSig:vector  ETV
vector 422111  Network.dyn_peer[55]  lookupHopsSig:vector  ETV
vector 422110  Network.dyn_peer[55]  lookupTimeSig:vector  ETV
vector 422095  Network.dyn_peer[47]  lookupHopsSig:vector  ETV
vector 422094  Network.dyn_peer[47]  lookupTimeSig:vector  ETV
vector 422101  Network.dyn_peer[50]  lookupHopsSig:vector  ETV
vector 422100  Network.dyn_peer[50]  lookupTimeSig:vector  ETV
vector 422107  Network.dyn_peer[53]  lookupHopsSig:vector  ETV
vector 422106  Network.dyn_peer[53]  lookupTimeSig:vector  ETV
vector 422113  Network.dyn_peer[56]  lookupHopsSig:vector  ETV
vector 422112  Network.dyn_peer[56]  lookupTimeSig:vector  ETV
vector 422109  Network.dyn_peer[54]  lookupHopsSig:vector  ETV
vector 422108  Network.dyn_peer[54]  lookupTimeSig:vector  ETV
vector 422121  Network.dyn_peer[60]  lookupHopsSig:vector  ETV
vector 422120  Network.dyn_peer[60]  lookupTimeSig:vector  ETV
vector 422127  Network.dyn_peer[63]  lookupHopsSig:vector  ETV
vector 422126  Network.dyn_peer[63]  lookupTimeSig:vector  ETV
vector 422115  Network.dyn_peer[57]  lookupHopsSig:vector  ETV
vector 422114  Network.dyn_peer[57]  lookupTimeSig:vector  ETV
vector 422119  Network.dyn_peer[59]  lookupHopsSig:vector  ETV
vector 422118  Network.dyn_peer[59]  lookupTimeSig:vector  ETV
vector 422125  Network.dyn_peer[62]  lookupHopsSig:vector  ETV
vector 422124  Network.dyn_peer[62]  lookupTimeSig:vector  ETV
vector 422129  Network.dyn_peer[64]  lookupHopsSig:vector  ETV
vector 422128  Network.dyn_peer[64]  lookupTimeSig:vector  ETV
vector 422135  Network.dyn_peer[67]  lookupHopsSig:vector  ETV
vector 422134  Network.dyn_peer[67]  lookupTimeSig:vector  ETV
vector 422137  Network.dyn_peer[68]  lookupHopsSig:vector  ETV
vector 422136  Network.dyn_peer[68]  lookupTimeSig:vector  ETV
vector 422145  Network.dyn_peer[72]  lookupHopsSig:vector  ETV
vector 422144  Network.dyn_peer[72]  lookupTimeSig:vector  ETV
vector 422123  Network.dyn_peer[61]  lookupHopsSig:vector  ETV
vector 422122  Network.dyn_peer[61]  lookupTimeSig:vector  ETV
vector 422117  Network.dyn_peer[58]  lookupHopsSig:vector  ETV
vector 422116  Network.dyn_peer[58]  lookupTimeSig:vector  ETV
vector 422139  Network.dyn_peer[69]  lookupHopsSig:vector  ETV
vector 422138  Network.dyn_peer[69]  lookupTimeSig:vector  ETV
vector 422155  Network.dyn_peer[77]  lookupHopsSig:vector  ETV
vector 422154  Network.dyn_peer[77]  lookupTimeSig:vector  ETV
vector 422143  Network.dyn_peer[71]  lookupHopsSig:vector  ETV
vector 422142  Network.dyn_peer[71]  lookupTimeSig:vector  ETV
vector 422157  Network.dyn_peer[78]  lookupHopsSig:vector  ETV
vector 422156  Network.dyn_peer[78]  lookupTimeSig:vector  ETV
vector 422131  Network.dyn_peer[65]  lookupHopsSig:vector  ETV
vector 422130  Network.dyn_peer[65]  lookupTimeSig:vector  ETV
vector 422141  Network.dyn_peer[70]  lookupHopsSig:vector  ETV
vector 422140  Network.dyn_peer[70]  lookupTimeSig:vector  ETV
vector 422133  Network.dyn_peer[66]  lookupHopsSig:vector  ETV
vector 422132  Network.dyn_peer[66]  lookupTimeSig:vector  ETV
vector 422159  Network.dyn_peer[79]  lookupHopsSig:vector  ETV
vector 422158  Network.dyn_peer[79]  lookupTimeSig:vector  ETV
vector 422149  Network.dyn_peer[74]  lookupHopsSig:vector  ETV
vector 422148  Network.dyn_peer[74]  lookupTimeSig:vector  ETV
vector 422151  Network.dyn_peer[75]  lookupHopsSig:vector  ETV
vector 422150  Network.dyn_peer[75]  lookupTimeSig:vector  ETV
vector 422161  Network.dyn_peer[80]  lookupHopsSig:vector  ETV
vector 422160  Network.dyn_peer[80]  lookupTimeSig:vector  ETV
vector 422165  Network.dyn_peer[82]  lookupHopsSig:vector  ETV
vector 422164  Network.dyn_peer[82]  lookupTimeSig:vector  ETV
vector 422153  Network.dyn_peer[76]  lookupHopsSig:vector  ETV
vector 422152  Network.dyn_peer[76]  lookupTimeSig:vector  ETV
vector 422147  Network.dyn_peer[73]  lookupHopsSig:vector  ETV
vector 422146  Network.dyn_peer[73]  lookupTimeSig:vector  ETV
vector 422173  Network.dyn_peer[86]  lookupHopsSig:vector  ETV
vector 422172  Network.dyn_peer[86]  lookupTimeSig:vector  ETV
vector 422177  Network.dyn_peer[88]  lookupHopsSig:vector  ETV
vector 422176  Network.dyn_peer[88]  lookupTimeSig:vector  ETV
vector 422167  Network.dyn_peer[83]  lookupHopsSig:vector  ETV
vector 422166  Network.dyn_peer[83]  lookupTimeSig:vector  ETV
vector 422175  Network.dyn_peer[87]  lookupHopsSig:vector  ETV
vector 422174  Network.dyn_peer[87]  lookupTimeSig:vector  ETV
vector 422169  Network.dyn_peer[84]  lookupHopsSig:vector  ETV
vector 422168  Network.dyn_peer[84]  lookupTimeSig:vector  ETV
vector 422195  Network.dyn_peer[97]  lookupHopsSig:vector  ETV
vector 422194  Network.dyn_peer[97]  lookupTimeSig:vector  ETV
vector 422163  Network.dyn_peer[81]  lookupHopsSig:vector  ETV
vector 422162  Network.dyn_peer[81]  lookupTimeSig:vector  ETV
vector 422171  Network.dyn_peer[85]  lookupHopsSig:vector  ETV
vector 422170  Network.dyn_peer[85]  lookupTimeSig:vector  ETV
vector 422191  Network.dyn_peer[95]  lookupHopsSig:vector  ETV
vector 422190  Network.dyn_peer[95]  lookupTimeSig:vector  ETV
vector 422189  Network.dyn_peer[94]  lookupHopsSig:vector  ETV
vector 422188  Network.dyn_peer[94]  lookupTimeSig:vector  ETV
vector 422193  Network.dyn_peer[96]  lookupHopsSig:vector  ETV
vector 422192  Network.dyn_peer[96]  lookupTimeSig:vector  ETV
vector 422187  Network.dyn_peer[93]  lookupHopsSig:vector  ETV
vector 422186  Network.dyn_peer[93]  lookupTimeSig:vector  ETV
vector 422185  Network.dyn_peer[92]  lookupHopsSig:vector  ETV
vector 422184  Network.dyn_peer[92]  lookupTimeSig:vector  ETV
vector 422199  Network.dyn_peer[99]  lookupHopsSig:vector  ETV
vector 422198  Network.dyn_peer[99]  lookupTimeSig:vector  ETV
vector 422181  Network.dyn_peer[90]  lookupHopsSig:vector  ETV
vector 422180  Network.dyn_peer[90]  lookupTimeSig:vector  ETV
vector 422197  Network.dyn_peer[98]  lookupHopsSig:vector  ETV
vector 422196  Network.dyn_peer[98]  lookupTimeSig:vector  ETV
vector 422205  Network.dyn_peer[102]  lookupHopsSig:vector  ETV
vector 422204  Network.dyn_peer[102]  lookupTimeSig:vector  ETV
vector 422203  Network.dyn_peer[101]  lookupHopsSig:vector  ETV
vector 422202  Network.dyn_peer[101]  lookupTimeSig:vector  ETV
vector 422179  Network.dyn_peer[89]  lookupHopsSig:vector  ETV
vector 422178  Network.dyn_peer[89]  lookupTimeSig:vector  ETV
vector 422209  Network.dyn_peer[104]  lookupHopsSig:vector  ETV
vector 422208  Network.dyn_peer[104]  lookupTimeSig:vector  ETV
vector 422183  Network.dyn_peer[91]  lookupHopsSig:vector  ETV
vector 422182  Network.dyn_peer[91]  lookupTimeSig:vector  ETV
vector 422221  Network.dyn_peer[110]  lookupHopsSig:vector  ETV
vector 422220  Network.dyn_peer[110]  lookupTimeSig:vector  ETV
vector 422219  Network.dyn_peer[109]  lookupHopsSig:vector  ETV
vector 422218  Network.dyn_peer[109]  lookupTimeSig:vector  ETV
vector 422207  Network.dyn_peer[103]  lookupHopsSig:vector  ETV
vector 422206  Network.dyn_peer[103]  lookupTimeSig:vector  ETV
vector 422223  Network.dyn_peer[111]  lookupHopsSig:vector  ETV
vector 422222  Network.dyn_peer[111]  lookupTimeSig:vector  ETV
vector 422229  Network.dyn_peer[114]  lookupHopsSig:vector  ETV
vector 422228  Network.dyn_peer[114]  lookupTimeSig:vector  ETV
vector 422233  Network.dyn_peer[116]  lookupHopsSig:vector  ETV
vector 422232  Network.dyn_peer[116]  lookupTimeSig:vector  ETV
vector 422213  Network.dyn_peer[106]  lookupHopsSig:vector  ETV
vector 422212  Network.dyn_peer[106]  lookupTimeSig:vector  ETV
vector 422227  Network.dyn_peer[113]  lookupHopsSig:vector  ETV
vector 422226  Network.dyn_peer[113]  lookupTimeSig:vector  ETV
vector 422215  Network.dyn_peer[107]  lookupHopsSig:vector  ETV
vector 422214  Network.dyn_peer[107]  lookupTimeSig:vector  ETV
vector 422211  Network.dyn_peer[105]  lookupHopsSig:vector  ETV
vector 422210  Network.dyn_peer[105]  lookupTimeSig:vector  ETV
vector 422245  Network.dyn_peer[122]  lookupHopsSig:vector  ETV
vector 422244  Network.dyn_peer[122]  lookupTimeSig:vector  ETV
vector 422217  Network.dyn_peer[108]  lookupHopsSig:vector  ETV
vector 422216  Network.dyn_peer[108]  lookupTimeSig:vector  ETV
vector 422241  Network.dyn_peer[120]  lookupHopsSig:vector  ETV
vector 422240  Network.dyn_peer[120]  lookupTimeSig:vector  ETV
vector 422239  Network.dyn_peer[119]  lookupHopsSig:vector  ETV
vector 422238  Network.dyn_peer[119]  lookupTimeSig:vector  ETV
vector 422249  Network.dyn_peer[124]  lookupHopsSig:vector  ETV
vector 422248  Network.dyn_peer[124]  lookupTimeSig:vector  ETV
vector 422243  Network.dyn_peer[121]  lookupHopsSig:vector  ETV
vector 422242  Network.dyn_peer[121]  lookupTimeSig:vector  ETV
vector 422201  Network.dyn_peer[100]  lookupHopsSig:vector  ETV
vector 422200  Network.dyn_peer[100]  lookupTimeSig:vector  ETV
vector 422225  Network.dyn_peer[112]  lookupHopsSig:vector  ETV
vector 422224  Network.dyn_peer[112]  lookupTimeSig:vector  ETV
vector 422257  Network.dyn_peer[128]  lookupHopsSig:vector  ETV
vector 422256  Network.dyn_peer[128]  lookupTimeSig:vector  ETV
vector 422235  Network.dyn_peer[117]  lookupHopsSig:vector  ETV
vector 422234  Network.dyn_peer[117]  lookupTimeSig:vector  ETV
vector 422255  Network.dyn_peer[127]  lookupHopsSig:vector  ETV
vector 422254  Network.dyn_peer[127]  lookupTimeSig:vector  ETV
vector 422237  Network.dyn_peer[118]  lookupHopsSig:vector  ETV
vector 422236  Network.dyn_peer[118]  lookupTimeSig:vector  ETV
vector 422253  Network.dyn_peer[126]  lookupHopsSig:vector  ETV
vector 422252  Network.dyn_peer[126]  lookupTimeSig:vector  ETV
vector 422231  Network.dyn_peer[115]  lookupHopsSig:vector  ETV
vector 422230  Network.dyn_peer[115]  lookupTimeSig:vector  ETV
vector 422259  Network.dyn_peer[129]  lookupHopsSig:vector  ETV
vector 422258  Network.dyn_peer[129]  lookupTimeSig:vector  ETV
vector 422277  Network.dyn_peer[138]  lookupHopsSig:vector  ETV
vector 422276  Network.dyn_peer[138]  lookupTimeSig:vector  ETV
vector 422247  Network.dyn_peer[123]  lookupHopsSig:vector  ETV
vector 422246  Network.dyn_peer[123]  lookupTimeSig:vector  ETV
vector 422261  Network.dyn_peer[130]  lookupHopsSig:vector  ETV
vector 422260  Network.dyn_peer[130]  lookupTimeSig:vector  ETV
vector 422251  Network.dyn_peer[125]  lookupHopsSig:vector  ETV
vector 422250  Network.dyn_peer[125]  lookupTimeSig:vector  ETV
vector 422281  Network.dyn_peer[140]  lookupHopsSig:vector  ETV
vector 422280  Network.dyn_peer[140]  lookupTimeSig:vector  ETV
vector 422263  Network.dyn_peer[131]  lookupHopsSig:vector  ETV
vector 422262  Network.dyn_peer[131]  lookupTimeSig:vector  ETV
vector 422279  Network.dyn_peer[139]  lookupHopsSig:vector  ETV
vector 422278  Network.dyn_peer[139]  lookupTimeSig:vector  ETV
vector 422275  Network.dyn_peer[137]  lookupHopsSig:vector  ETV
vector 422274  Network.dyn_peer[137]  lookupTimeSig:vector  ETV
vector 422267  Network.dyn_peer[133]  lookupHopsSig:vector  ETV
vector 422266  Network.dyn_peer[133]  lookupTimeSig:vector  ETV
vector 422271  Network.dyn_peer[135]  lookupHopsSig:vector  ETV
vector 422270  Network.dyn_peer[135]  lookupTimeSig:vector  ETV
vector 422289  Network.dyn_peer[144]  lookupHopsSig:vector  ETV
vector 422288  Network.dyn_peer[144]  lookupTimeSig:vector  ETV
vector 422283  Network.dyn_peer[141]  lookupHopsSig:vector  ETV
vector 422282  Network.dyn_peer[141]  lookupTimeSig:vector  ETV
vector 422287  Network.dyn_peer[143]  lookupHopsSig:vector  ETV
vector 422286  Network.dyn_peer[143]  lookupTimeSig:vector  ETV
vector 422265  Network.dyn_peer[132]  lookupHopsSig:vector  ETV
vector 422264  Network.dyn_peer[132]  lookupTimeSig:vector  ETV
vector 422269  Network.dyn_peer[134]  lookupHopsSig:vector  ETV
vector 422268  Network.dyn_peer[134]  lookupTimeSig:vector  ETV
vector 422273  Network.dyn_peer[136]  lookupHopsSig:vector  ETV
vector 422272  Network.dyn_peer[136]  lookupTimeSig:vector  ETV
vector 422291  Network.dyn_peer[145]  lookupHopsSig:vector  ETV
vector 422290  Network.dyn_peer[145]  lookupTimeSig:vector  ETV
vector 422285  Network.dyn_peer[142]  lookupHopsSig:vector  ETV
vector 422284  Network.dyn_peer[142]  lookupTimeSig:vector  ETV
vector 422295  Network.dyn_peer[147]  lookupHopsSig:vector  ETV
vector 422294  Network.dyn_peer[147]  lookupTimeSig:vector  ETV
vector 422293  Network.dyn_peer[146]  lookupHopsSig:vector  ETV
vector 422292  Network.dyn_peer[146]  lookupTimeSig:vector  ETV
vector 422303  Network.dyn_peer[151]  lookupHopsSig:vector  ETV
vector 422302  Network.dyn_peer[151]  lookupTimeSig:vector  ETV
vector 422301  Network.dyn_peer[150]  lookupHopsSig:vector  ETV
vector 422300  Network.dyn_peer[150]  lookupTimeSig:vector  ETV
vector 422299  Network.dyn_peer[149]  lookupHopsSig:vector  ETV
vector 422298  Network.dyn_peer[149]  lookupTimeSig:vector  ETV
vector 422305  Network.dyn_peer[152]  lookupHopsSig:vector  ETV
vector 422304  Network.dyn_peer[152]  lookupTimeSig:vector  ETV
vector 422309  Network.dyn_peer[154]  lookupHopsSig:vector  ETV
vector 422308  Network.dyn_peer[154]  lookupTimeSig:vector  ETV
vector 422307  Network.dyn_peer[153]  lookupHopsSig:vector  ETV
vector 422306  Network.dyn_peer[153]  lookupTimeSig:vector  ETV
vector 422319  Network.dyn_peer[159]  lookupHopsSig:vector  ETV
vector 422318  Network.dyn_peer[159]  lookupTimeSig:vector  ETV
vector 422315  Network.dyn_peer[157]  lookupHopsSig:vector  ETV
vector 422314  Network.dyn_peer[157]  lookupTimeSig:vector  ETV
vector 422339  Network.dyn_peer[169]  lookupHopsSig:vector  ETV
vector 422338  Network.dyn_peer[169]  lookupTimeSig:vector  ETV
vector 422329  Network.dyn_peer[164]  lookupHopsSig:vector  ETV
vector 422328  Network.dyn_peer[164]  lookupTimeSig:vector  ETV
vector 422321  Network.dyn_peer[160]  lookupHopsSig:vector  ETV
vector 422320  Network.dyn_peer[160]  lookupTimeSig:vector  ETV
vector 422313  Network.dyn_peer[156]  lookupHopsSig:vector  ETV
vector 422312  Network.dyn_peer[156]  lookupTimeSig:vector  ETV
vector 422345  Network.dyn_peer[172]  lookupHopsSig:vector  ETV
vector 422344  Network.dyn_peer[172]  lookupTimeSig:vector  ETV
vector 422333  Network.dyn_peer[166]  lookupHopsSig:vector  ETV
vector 422332  Network.dyn_peer[166]  lookupTimeSig:vector  ETV
vector 422347  Network.dyn_peer[173]  lookupHopsSig:vector  ETV
vector 422346  Network.dyn_peer[173]  lookupTimeSig:vector  ETV
vector 422317  Network.dyn_peer[158]  lookupHopsSig:vector  ETV
vector 422316  Network.dyn_peer[158]  lookupTimeSig:vector  ETV
vector 422341  Network.dyn_peer[170]  lookupHopsSig:vector  ETV
vector 422340  Network.dyn_peer[170]  lookupTimeSig:vector  ETV
vector 422297  Network.dyn_peer[148]  lookupHopsSig:vector  ETV
vector 422296  Network.dyn_peer[148]  lookupTimeSig:vector  ETV
vector 422357  Network.dyn_peer[178]  lookupHopsSig:vector  ETV
vector 422356  Network.dyn_peer[178]  lookupTimeSig:vector  ETV
vector 422335  Network.dyn_peer[167]  lookupHopsSig:vector  ETV
vector 422334  Network.dyn_peer[167]  lookupTimeSig:vector  ETV
vector 422355  Network.dyn_peer[177]  lookupHopsSig:vector  ETV
vector 422354  Network.dyn_peer[177]  lookupTimeSig:vector  ETV
vector 422343  Network.dyn_peer[171]  lookupHopsSig:vector  ETV
vector 422342  Network.dyn_peer[171]  lookupTimeSig:vector  ETV
vector 422327  Network.dyn_peer[163]  lookupHopsSig:vector  ETV
vector 422326  Network.dyn_peer[163]  lookupTimeSig:vector  ETV
vector 422323  Network.dyn_peer[161]  lookupHopsSig:vector  ETV
vector 422322  Network.dyn_peer[161]  lookupTimeSig:vector  ETV
vector 422337  Network.dyn_peer[168]  lookupHopsSig:vector  ETV
vector 422336  Network.dyn_peer[168]  lookupTimeSig:vector  ETV
vector 422325  Network.dyn_peer[162]  lookupHopsSig:vector  ETV
vector 422324  Network.dyn_peer[162]  lookupTimeSig:vector  ETV
vector 422331  Network.dyn_peer[165]  lookupHopsSig:vector  ETV
vector 422330  Network.dyn_peer[165]  lookupTimeSig:vector  ETV
vector 422369  Network.dyn_peer[184]  lookupHopsSig:vector  ETV
vector 422368  Network.dyn_peer[184]  lookupTimeSig:vector  ETV
vector 422367  Network.dyn_peer[183]  lookupHopsSig:vector  ETV
vector 422366  Network.dyn_peer[183]  lookupTimeSig:vector  ETV
vector 422363  Network.dyn_peer[181]  lookupHopsSig:vector  ETV
vector 422362  Network.dyn_peer[181]  lookupTimeSig:vector  ETV
vector 422379  Network.dyn_peer[189]  lookupHopsSig:vector  ETV
vector 422378  Network.dyn_peer[189]  lookupTimeSig:vector  ETV
vector 422351  Network.dyn_peer[175]  lookupHopsSig:vector  ETV
vector 422350  Network.dyn_peer[175]  lookupTimeSig:vector  ETV
vector 422311  Network.dyn_peer[155]  lookupHopsSig:vector  ETV
vector 422310  Network.dyn_peer[155]  lookupTimeSig:vector  ETV
vector 422359  Network.dyn_peer[179]  lookupHopsSig:vector  ETV
vector 422358  Network.dyn_peer[179]  lookupTimeSig:vector  ETV
vector 422361  Network.dyn_peer[180]  lookupHopsSig:vector  ETV
vector 422360  Network.dyn_peer[180]  lookupTimeSig:vector  ETV
vector 422377  Network.dyn_peer[188]  lookupHopsSig:vector  ETV
vector 422376  Network.dyn_peer[188]  lookupTimeSig:vector  ETV
vector 422373  Network.dyn_peer[186]  lookupHopsSig:vector  ETV
vector 422372  Network.dyn_peer[186]  lookupTimeSig:vector  ETV
vector 422383  Network.dyn_peer[191]  lookupHopsSig:vector  ETV
vector 422382  Network.dyn_peer[191]  lookupTimeSig:vector  ETV
vector 422385  Network.dyn_peer[192]  lookupHopsSig:vector  ETV
vector 422384  Network.dyn_peer[192]  lookupTimeSig:vector  ETV
vector 422365  Network.dyn_peer[182]  lookupHopsSig:vector  ETV
vector 422364  Network.dyn_peer[182]  lookupTimeSig:vector  ETV
vector 422353  Network.dyn_peer[176]  lookupHopsSig:vector  ETV
vector 422352  Network.dyn_peer[176]  lookupTimeSig:vector  ETV
vector 422389  Network.dyn_peer[194]  lookupHopsSig:vector  ETV
vector 422388  Network.dyn_peer[194]  lookupTimeSig:vector  ETV
vector 422405  Network.dyn_peer[202]  lookupHopsSig:vector  ETV
vector 422404  Network.dyn_peer[202]  lookupTimeSig:vector  ETV
vector 422387  Network.dyn_peer[193]  lookupHopsSig:vector  ETV
vector 422386  Network.dyn_peer[193]  lookupTimeSig:vector  ETV
vector 422403  Network.dyn_peer[201]  lookupHopsSig:vector  ETV
vector 422402  Network.dyn_peer[201]  lookupTimeSig:vector  ETV
vector 422349  Network.dyn_peer[174]  lookupHopsSig:vector  ETV
vector 422348  Network.dyn_peer[174]  lookupTimeSig:vector  ETV
vector 422375  Network.dyn_peer[187]  lookupHopsSig:vector  ETV
vector 422374  Network.dyn_peer[187]  lookupTimeSig:vector  ETV
vector 422391  Network.dyn_peer[195]  lookupHopsSig:vector  ETV
vector 422390  Network.dyn_peer[195]  lookupTimeSig:vector  ETV
vector 422381  Network.dyn_peer[190]  lookupHopsSig:vector  ETV
vector 422380  Network.dyn_peer[190]  lookupTimeSig:vector  ETV
vector 422401  Network.dyn_peer[200]  lookupHopsSig:vector  ETV
vector 422400  Network.dyn_peer[200]  lookupTimeSig:vector  ETV
vector 422423  Network.dyn_peer[211]  lookupHopsSig:vector  ETV
vector 422422  Network.dyn_peer[211]  lookupTimeSig:vector  ETV
vector 422371  Network.dyn_peer[185]  lookupHopsSig:vector  ETV
vector 422370  Network.dyn_peer[185]  lookupTimeSig:vector  ETV
vector 422409  Network.dyn_peer[204]  lookupHopsSig:vector  ETV
vector 422408  Network.dyn_peer[204]  lookupTimeSig:vector  ETV
vector 422407  Network.dyn_peer[203]  lookupHopsSig:vector  ETV
vector 422406  Network.dyn_peer[203]  lookupTimeSig:vector  ETV
vector 422395  Network.dyn_peer[197]  lookupHopsSig:vector  ETV
vector 422394  Network.dyn_peer[197]  lookupTimeSig:vector  ETV
vector 422393  Network.dyn_peer[196]  lookupHopsSig:vector  ETV
vector 422392  Network.dyn_peer[196]  lookupTimeSig:vector  ETV
vector 422417  Network.dyn_peer[208]  lookupHopsSig:vector  ETV
vector 422416  Network.dyn_peer[208]  lookupTimeSig:vector  ETV
vector 422419  Network.dyn_peer[209]  lookupHopsSig:vector  ETV
vector 422418  Network.dyn_peer[209]  lookupTimeSig:vector  ETV
vector 422399  Network.dyn_peer[199]  lookupHopsSig:vector  ETV
vector 422398  Network.dyn_peer[199]  lookupTimeSig:vector  ETV
vector 422415  Network.dyn_peer[207]  lookupHopsSig:vector  ETV
vector 422414  Network.dyn_peer[207]  lookupTimeSig:vector  ETV
vector 422441  Network.dyn_peer[220]  lookupHopsSig:vector  ETV
vector 422440  Network.dyn_peer[220]  lookupTimeSig:vector  ETV
vector 422397  Network.dyn_peer[198]  lookupHopsSig:vector  ETV
vector 422396  Network.dyn_peer[198]  lookupTimeSig:vector  ETV
vector 422413  Network.dyn_peer[206]  lookupHopsSig:vector  ETV
vector 422412  Network.dyn_peer[206]  lookupTimeSig:vector  ETV
vector 422445  Network.dyn_peer[222]  lookupHopsSig:vector  ETV
vector 422444  Network.dyn_peer[222]  lookupTimeSig:vector  ETV
vector 422411  Network.dyn_peer[205]  lookupHopsSig:vector  ETV
vector 422410  Network.dyn_peer[205]  lookupTimeSig:vector  ETV
vector 422421  Network.dyn_peer[210]  lookupHopsSig:vector  ETV
vector 422420  Network.dyn_peer[210]  lookupTimeSig:vector  ETV
vector 422435  Network.dyn_peer[217]  lookupHopsSig:vector  ETV
vector 422434  Network.dyn_peer[217]  lookupTimeSig:vector  ETV
vector 422425  Network.dyn_peer[212]  lookupHopsSig:vector  ETV
vector 422424  Network.dyn_peer[212]  lookupTimeSig:vector  ETV
vector 422457  Network.dyn_peer[228]  lookupHopsSig:vector  ETV
vector 422456  Network.dyn_peer[228]  lookupTimeSig:vector  ETV
vector 422451  Network.dyn_peer[225]  lookupHopsSig:vector  ETV
vector 422450  Network.dyn_peer[225]  lookupTimeSig:vector  ETV
vector 422433  Network.dyn_peer[216]  lookupHopsSig:vector  ETV
vector 422432  Network.dyn_peer[216]  lookupTimeSig:vector  ETV
vector 422427  Network.dyn_peer[213]  lookupHopsSig:vector  ETV
vector 422426  Network.dyn_peer[213]  lookupTimeSig:vector  ETV
vector 422431  Network.dyn_peer[215]  lookupHopsSig:vector  ETV
vector 422430  Network.dyn_peer[215]  lookupTimeSig:vector  ETV
vector 422429  Network.dyn_peer[214]  lookupHopsSig:vector  ETV
vector 422428  Network.dyn_peer[214]  lookupTimeSig:vector  ETV
vector 422465  Network.dyn_peer[232]  lookupHopsSig:vector  ETV
vector 422464  Network.dyn_peer[232]  lookupTimeSig:vector  ETV
vector 422447  Network.dyn_peer[223]  lookupHopsSig:vector  ETV
vector 422446  Network.dyn_peer[223]  lookupTimeSig:vector  ETV
vector 422449  Network.dyn_peer[224]  lookupHopsSig:vector  ETV
vector 422448  Network.dyn_peer[224]  lookupTimeSig:vector  ETV
vector 422463  Network.dyn_peer[231]  lookupHopsSig:vector  ETV
vector 422462  Network.dyn_peer[231]  lookupTimeSig:vector  ETV
vector 422467  Network.dyn_peer[233]  lookupHopsSig:vector  ETV
vector 422466  Network.dyn_peer[233]  lookupTimeSig:vector  ETV
vector 422455  Network.dyn_peer[227]  lookupHopsSig:vector  ETV
vector 422454  Network.dyn_peer[227]  lookupTimeSig:vector  ETV
vector 422475  Network.dyn_peer[237]  lookupHopsSig:vector  ETV
vector 422474  Network.dyn_peer[237]  lookupTimeSig:vector  ETV
vector 422437  Network.dyn_peer[218]  lookupHopsSig:vector  ETV
vector 422436  Network.dyn_peer[218]  lookupTimeSig:vector  ETV
vector 422487  Network.dyn_peer[243]  lookupHopsSig:vector  ETV
vector 422486  Network.dyn_peer[243]  lookupTimeSig:vector  ETV
vector 422443  Network.dyn_peer[221]  lookupHopsSig:vector  ETV
vector 422442  Network.dyn_peer[221]  lookupTimeSig:vector  ETV