file 1026128 1369168247                                         
version 2
run Stability-105-20130521-22:30:42-23591
attr configname Stability
attr datetime 20130521-22:30:42
attr experiment Stability
attr inifile omnetpp.ini
attr iterationvars $0=1
attr iterationvars2 "$0=1, $repetition=15"
attr measurement $0=1
attr network Network
attr processid 23591
attr repetition 15
attr replication #15
attr resultdir results
attr runnumber 105
attr seedset 105

vector 210001  Network.dyn_peer[0]  lookupHopsSig:vector  ETV
vector 210000  Network.dyn_peer[0]  lookupTimeSig:vector  ETV
vector 210003  Network.dyn_peer[1]  lookupHopsSig:vector  ETV
vector 210002  Network.dyn_peer[1]  lookupTimeSig:vector  ETV
vector 210005  Network.dyn_peer[2]  lookupHopsSig:vector  ETV
vector 210004  Network.dyn_peer[2]  lookupTimeSig:vector  ETV
vector 210007  Network.dyn_peer[3]  lookupHopsSig:vector  ETV
vector 210006  Network.dyn_peer[3]  lookupTimeSig:vector  ETV
vector 210009  Network.dyn_peer[4]  lookupHopsSig:vector  ETV
vector 210008  Network.dyn_peer[4]  lookupTimeSig:vector  ETV
vector 210011  Network.dyn_peer[5]  lookupHopsSig:vector  ETV
vector 210010  Network.dyn_peer[5]  lookupTimeSig:vector  ETV
vector 210013  Network.dyn_peer[6]  lookupHopsSig:vector  ETV
vector 210012  Network.dyn_peer[6]  lookupTimeSig:vector  ETV
vector 210015  Network.dyn_peer[7]  lookupHopsSig:vector  ETV
vector 210014  Network.dyn_peer[7]  lookupTimeSig:vector  ETV
vector 210017  Network.dyn_peer[8]  lookupHopsSig:vector  ETV
vector 210016  Network.dyn_peer[8]  lookupTimeSig:vector  ETV
vector 210019  Network.dyn_peer[9]  lookupHopsSig:vector  ETV
vector 210018  Network.dyn_peer[9]  lookupTimeSig:vector  ETV
vector 210021  Network.dyn_peer[10]  lookupHopsSig:vector  ETV
vector 210020  Network.dyn_peer[10]  lookupTimeSig:vector  ETV
vector 210023  Network.dyn_peer[11]  lookupHopsSig:vector  ETV
vector 210022  Network.dyn_peer[11]  lookupTimeSig:vector  ETV
vector 210025  Network.dyn_peer[12]  lookupHopsSig:vector  ETV
vector 210024  Network.dyn_peer[12]  lookupTimeSig:vector  ETV
vector 210027  Network.dyn_peer[13]  lookupHopsSig:vector  ETV
vector 210026  Network.dyn_peer[13]  lookupTimeSig:vector  ETV
vector 210029  Network.dyn_peer[14]  lookupHopsSig:vector  ETV
vector 210028  Network.dyn_peer[14]  lookupTimeSig:vector  ETV
vector 210031  Network.dyn_peer[15]  lookupHopsSig:vector  ETV
vector 210030  Network.dyn_peer[15]  lookupTimeSig:vector  ETV
vector 210033  Network.dyn_peer[16]  lookupHopsSig:vector  ETV
vector 210032  Network.dyn_peer[16]  lookupTimeSig:vector  ETV
vector 210035  Network.dyn_peer[17]  lookupHopsSig:vector  ETV
vector 210034  Network.dyn_peer[17]  lookupTimeSig:vector  ETV
vector 210037  Network.dyn_peer[18]  lookupHopsSig:vector  ETV
vector 210036  Network.dyn_peer[18]  lookupTimeSig:vector  ETV
vector 210039  Network.dyn_peer[19]  lookupHopsSig:vector  ETV
vector 210038  Network.dyn_peer[19]  lookupTimeSig:vector  ETV
vector 210041  Network.dyn_peer[20]  lookupHopsSig:vector  ETV
vector 210040  Network.dyn_peer[20]  lookupTimeSig:vector  ETV
vector 210043  Network.dyn_peer[21]  lookupHopsSig:vector  ETV
vector 210042  Network.dyn_peer[21]  lookupTimeSig:vector  ETV
vector 210045  Network.dyn_peer[22]  lookupHopsSig:vector  ETV
vector 210044  Network.dyn_peer[22]  lookupTimeSig:vector  ETV
vector 210047  Network.dyn_peer[23]  lookupHopsSig:vector  ETV
vector 210046  Network.dyn_peer[23]  lookupTimeSig:vector  ETV
vector 210049  Network.dyn_peer[24]  lookupHopsSig:vector  ETV
vector 210048  Network.dyn_peer[24]  lookupTimeSig:vector  ETV
vector 210051  Network.dyn_peer[25]  lookupHopsSig:vector  ETV
vector 210050  Network.dyn_peer[25]  lookupTimeSig:vector  ETV
vector 210053  Network.dyn_peer[26]  lookupHopsSig:vector  ETV
vector 210052  Network.dyn_peer[26]  lookupTimeSig:vector  ETV
vector 210055  Network.dyn_peer[27]  lookupHopsSig:vector  ETV
vector 210054  Network.dyn_peer[27]  lookupTimeSig:vector  ETV
vector 210057  Network.dyn_peer[28]  lookupHopsSig:vector  ETV
vector 210056  Network.dyn_peer[28]  lookupTimeSig:vector  ETV
vector 210059  Network.dyn_peer[29]  lookupHopsSig:vector  ETV
vector 210058  Network.dyn_peer[29]  lookupTimeSig:vector  ETV
vector 210061  Network.dyn_peer[30]  lookupHopsSig:vector  ETV
vector 210060  Network.dyn_peer[30]  lookupTimeSig:vector  ETV
vector 210063  Network.dyn_peer[31]  lookupHopsSig:vector  ETV
vector 210062  Network.dyn_peer[31]  lookupTimeSig:vector  ETV
vector 210065  Network.dyn_peer[32]  lookupHopsSig:vector  ETV
vector 210064  Network.dyn_peer[32]  lookupTimeSig:vector  ETV
vector 210067  Network.dyn_peer[33]  lookupHopsSig:vector  ETV
vector 210066  Network.dyn_peer[33]  lookupTimeSig:vector  ETV
vector 210069  Network.dyn_peer[34]  lookupHopsSig:vector  ETV
vector 210068  Network.dyn_peer[34]  lookupTimeSig:vector  ETV
vector 210071  Network.dyn_peer[35]  lookupHopsSig:vector  ETV
vector 210070  Network.dyn_peer[35]  lookupTimeSig:vector  ETV
vector 210073  Network.dyn_peer[36]  lookupHopsSig:vector  ETV
vector 210072  Network.dyn_peer[36]  lookupTimeSig:vector  ETV
vector 210075  Network.dyn_peer[37]  lookupHopsSig:vector  ETV
vector 210074  Network.dyn_peer[37]  lookupTimeSig:vector  ETV
vector 210077  Network.dyn_peer[38]  lookupHopsSig:vector  ETV
vector 210076  Network.dyn_peer[38]  lookupTimeSig:vector  ETV
vector 210079  Network.dyn_peer[39]  lookupHopsSig:vector  ETV
vector 210078  Network.dyn_peer[39]  lookupTimeSig:vector  ETV
vector 210081  Network.dyn_peer[40]  lookupHopsSig:vector  ETV
vector 210080  Network.dyn_peer[40]  lookupTimeSig:vector  ETV
vector 210083  Network.dyn_peer[41]  lookupHopsSig:vector  ETV
vector 210082  Network.dyn_peer[41]  lookupTimeSig:vector  ETV
vector 210085  Network.dyn_peer[42]  lookupHopsSig:vector  ETV
vector 210084  Network.dyn_peer[42]  lookupTimeSig:vector  ETV
vector 210087  Network.dyn_peer[43]  lookupHopsSig:vector  ETV
vector 210086  Network.dyn_peer[43]  lookupTimeSig:vector  ETV
vector 210089  Network.dyn_peer[44]  lookupHopsSig:vector  ETV
vector 210088  Network.dyn_peer[44]  lookupTimeSig:vector  ETV
vector 210091  Network.dyn_peer[45]  lookupHopsSig:vector  ETV
vector 210090  Network.dyn_peer[45]  lookupTimeSig:vector  ETV
vector 210093  Network.dyn_peer[46]  lookupHopsSig:vector  ETV
vector 210092  Network.dyn_peer[46]  lookupTimeSig:vector  ETV
vector 210095  Network.dyn_peer[47]  lookupHopsSig:vector  ETV
vector 210094  Network.dyn_peer[47]  lookupTimeSig:vector  ETV
vector 210097  Network.dyn_peer[48]  lookupHopsSig:vector  ETV
vector 210096  Network.dyn_peer[48]  lookupTimeSig:vector  ETV
vector 210099  Network.dyn_peer[49]  lookupHopsSig:vector  ETV
vector 210098  Network.dyn_peer[49]  lookupTimeSig:vector  ETV
vector 210101  Network.dyn_peer[50]  lookupHopsSig:vector  ETV
vector 210100  Network.dyn_peer[50]  lookupTimeSig:vector  ETV
vector 210103  Network.dyn_peer[51]  lookupHopsSig:vector  ETV
vector 210102  Network.dyn_peer[51]  lookupTimeSig:vector  ETV
vector 210105  Network.dyn_peer[52]  lookupHopsSig:vector  ETV
vector 210104  Network.dyn_peer[52]  lookupTimeSig:vector  ETV
vector 210107  Network.dyn_peer[53]  lookupHopsSig:vector  ETV
vector 210106  Network.dyn_peer[53]  lookupTimeSig:vector  ETV
vector 210109  Network.dyn_peer[54]  lookupHopsSig:vector  ETV
vector 210108  Network.dyn_peer[54]  lookupTimeSig:vector  ETV
vector 210111  Network.dyn_peer[55]  lookupHopsSig:vector  ETV
vector 210110  Network.dyn_peer[55]  lookupTimeSig:vector  ETV
vector 210113  Network.dyn_peer[56]  lookupHopsSig:vector  ETV
vector 210112  Network.dyn_peer[56]  lookupTimeSig:vector  ETV
vector 210115  Network.dyn_peer[57]  lookupHopsSig:vector  ETV
vector 210114  Network.dyn_peer[57]  lookupTimeSig:vector  ETV
vector 210117  Network.dyn_peer[58]  lookupHopsSig:vector  ETV
vector 210116  Network.dyn_peer[58]  lookupTimeSig:vector  ETV
vector 210119  Network.dyn_peer[59]  lookupHopsSig:vector  ETV
vector 210118  Network.dyn_peer[59]  lookupTimeSig:vector  ETV
vector 210121  Network.dyn_peer[60]  lookupHopsSig:vector  ETV
vector 210120  Network.dyn_peer[60]  lookupTimeSig:vector  ETV
vector 210123  Network.dyn_peer[61]  lookupHopsSig:vector  ETV
vector 210122  Network.dyn_peer[61]  lookupTimeSig:vector  ETV
vector 210125  Network.dyn_peer[62]  lookupHopsSig:vector  ETV
vector 210124  Network.dyn_peer[62]  lookupTimeSig:vector  ETV
vector 210127  Network.dyn_peer[63]  lookupHopsSig:vector  ETV
vector 210126  Network.dyn_peer[63]  lookupTimeSig:vector  ETV
vector 210129  Network.dyn_peer[64]  lookupHopsSig:vector  ETV
vector 210128  Network.dyn_peer[64]  lookupTimeSig:vector  ETV
vector 210131  Network.dyn_peer[65]  lookupHopsSig:vector  ETV
vector 210130  Network.dyn_peer[65]  lookupTimeSig:vector  ETV
vector 210133  Network.dyn_peer[66]  lookupHopsSig:vector  ETV
vector 210132  Network.dyn_peer[66]  lookupTimeSig:vector  ETV
vector 210135  Network.dyn_peer[67]  lookupHopsSig:vector  ETV
vector 210134  Network.dyn_peer[67]  lookupTimeSig:vector  ETV
vector 210137  Network.dyn_peer[68]  lookupHopsSig:vector  ETV
vector 210136  Network.dyn_peer[68]  lookupTimeSig:vector  ETV
vector 210139  Network.dyn_peer[69]  lookupHopsSig:vector  ETV
vector 210138  Network.dyn_peer[69]  lookupTimeSig:vector  ETV
vector 210141  Network.dyn_peer[70]  lookupHopsSig:vector  ETV
vector 210140  Network.dyn_peer[70]  lookupTimeSig:vector  ETV
vector 210143  Network.dyn_peer[71]  lookupHopsSig:vector  ETV
vector 210142  Network.dyn_peer[71]  lookupTimeSig:vector  ETV
vector 210145  Network.dyn_peer[72]  lookupHopsSig:vector  ETV
vector 210144  Network.dyn_peer[72]  lookupTimeSig:vector  ETV
vector 210147  Network.dyn_peer[73]  lookupHopsSig:vector  ETV
vector 210146  Network.dyn_peer[73]  lookupTimeSig:vector  ETV
vector 210149  Network.dyn_peer[74]  lookupHopsSig:vector  ETV
vector 210148  Network.dyn_peer[74]  lookupTimeSig:vector  ETV
vector 210151  Network.dyn_peer[75]  lookupHopsSig:vector  ETV
vector 210150  Network.dyn_peer[75]  lookupTimeSig:vector  ETV
vector 210153  Network.dyn_peer[76]  lookupHopsSig:vector  ETV
vector 210152  Network.dyn_peer[76]  lookupTimeSig:vector  ETV
vector 210155  Network.dyn_peer[77]  lookupHopsSig:vector  ETV
vector 210154  Network.dyn_peer[77]  lookupTimeSig:vector  ETV
vector 210157  Network.dyn_peer[78]  lookupHopsSig:vector  ETV
vector 210156  Network.dyn_peer[78]  lookupTimeSig:vector  ETV
vector 210159  Network.dyn_peer[79]  lookupHopsSig:vector  ETV
vector 210158  Network.dyn_peer[79]  lookupTimeSig:vector  ETV
vector 210161  Network.dyn_peer[80]  lookupHopsSig:vector  ETV
vector 210160  Network.dyn_peer[80]  lookupTimeSig:vector  ETV
vector 210163  Network.dyn_peer[81]  lookupHopsSig:vector  ETV
vector 210162  Network.dyn_peer[81]  lookupTimeSig:vector  ETV
vector 210165  Network.dyn_peer[82]  lookupHopsSig:vector  ETV
vector 210164  Network.dyn_peer[82]  lookupTimeSig:vector  ETV
vector 210167  Network.dyn_peer[83]  lookupHopsSig:vector  ETV
vector 210166  Network.dyn_peer[83]  lookupTimeSig:vector  ETV
vector 210169  Network.dyn_peer[84]  lookupHopsSig:vector  ETV
vector 210168  Network.dyn_peer[84]  lookupTimeSig:vector  ETV
vector 210171  Network.dyn_peer[85]  lookupHopsSig:vector  ETV
vector 210170  Network.dyn_peer[85]  lookupTimeSig:vector  ETV
vector 210173  Network.dyn_peer[86]  lookupHopsSig:vector  ETV
vector 210172  Network.dyn_peer[86]  lookupTimeSig:vector  ETV
vector 210175  Network.dyn_peer[87]  lookupHopsSig:vector  ETV
vector 210174  Network.dyn_peer[87]  lookupTimeSig:vector  ETV
vector 210177  Network.dyn_peer[88]  lookupHopsSig:vector  ETV
vector 210176  Network.dyn_peer[88]  lookupTimeSig:vector  ETV
vector 210179  Network.dyn_peer[89]  lookupHopsSig:vector  ETV
vector 210178  Network.dyn_peer[89]  lookupTimeSig:vector  ETV
vector 210181  Network.dyn_peer[90]  lookupHopsSig:vector  ETV
vector 210180  Network.dyn_peer[90]  lookupTimeSig:vector  ETV
vector 210183  Network.dyn_peer[91]  lookupHopsSig:vector  ETV
vector 210182  Network.dyn_peer[91]  lookupTimeSig:vector  ETV
vector 210185  Network.dyn_peer[92]  lookupHopsSig:vector  ETV
vector 210184  Network.dyn_peer[92]  lookupTimeSig:vector  ETV
vector 210187  Network.dyn_peer[93]  lookupHopsSig:vector  ETV
vector 210186  Network.dyn_peer[93]  lookupTimeSig:vector  ETV
vector 210189  Network.dyn_peer[94]  lookupHopsSig:vector  ETV
vector 210188  Network.dyn_peer[94]  lookupTimeSig:vector  ETV
vector 210191  Network.dyn_peer[95]  lookupHopsSig:vector  ETV
vector 210190  Network.dyn_peer[95]  lookupTimeSig:vector  ETV
vector 210193  Network.dyn_peer[96]  lookupHopsSig:vector  ETV
vector 210192  Network.dyn_peer[96]  lookupTimeSig:vector  ETV
vector 210195  Network.dyn_peer[97]  lookupHopsSig:vector  ETV
vector 210194  Network.dyn_peer[97]  lookupTimeSig:vector  ETV
vector 210197  Network.dyn_peer[98]  lookupHopsSig:vector  ETV
vector 210196  Network.dyn_peer[98]  lookupTimeSig:vector  ETV
vector 210199  Network.dyn_peer[99]  lookupHopsSig:vector  ETV
vector 210198  Network.dyn_peer[99]  lookupTimeSig:vector  ETV
vector 210201  Network.dyn_peer[100]  lookupHopsSig:vector  ETV
vector 210200  Network.dyn_peer[100]  lookupTimeSig:vector  ETV
vector 210203  Network.dyn_peer[101]  lookupHopsSig:vector  ETV
vector 210202  Network.dyn_peer[101]  lookupTimeSig:vector  ETV
vector 210205  Network.dyn_peer[102]  lookupHopsSig:vector  ETV
vector 210204  Network.dyn_peer[102]  lookupTimeSig:vector  ETV
vector 210207  Network.dyn_peer[103]  lookupHopsSig:vector  ETV
vector 210206  Network.dyn_peer[103]  lookupTimeSig:vector  ETV
vector 210209  Network.dyn_peer[104]  lookupHopsSig:vector  ETV
vector 210208  Network.dyn_peer[104]  lookupTimeSig:vector  ETV
vector 210211  Network.dyn_peer[105]  lookupHopsSig:vector  ETV
vector 210210  Network.dyn_peer[105]  lookupTimeSig:vector  ETV
vector 210213  Network.dyn_peer[106]  lookupHopsSig:vector  ETV
vector 210212  Network.dyn_peer[106]  lookupTimeSig:vector  ETV
vector 210215  Network.dyn_peer[107]  lookupHopsSig:vector  ETV
vector 210214  Network.dyn_peer[107]  lookupTimeSig:vector  ETV
vector 210217  Network.dyn_peer[108]  lookupHopsSig:vector  ETV
vector 210216  Network.dyn_peer[108]  lookupTimeSig:vector  ETV
vector 210219  Network.dyn_peer[109]  lookupHopsSig:vector  ETV
vector 210218  Network.dyn_peer[109]  lookupTimeSig:vector  ETV
vector 210221  Network.dyn_peer[110]  lookupHopsSig:vector  ETV
vector 210220  Network.dyn_peer[110]  lookupTimeSig:vector  ETV
vector 210223  Network.dyn_peer[111]  lookupHopsSig:vector  ETV
vector 210222  Network.dyn_peer[111]  lookupTimeSig:vector  ETV
vector 210225  Network.dyn_peer[112]  lookupHopsSig:vector  ETV
vector 210224  Network.dyn_peer[112]  lookupTimeSig:vector  ETV
vector 210227  Network.dyn_peer[113]  lookupHopsSig:vector  ETV
vector 210226  Network.dyn_peer[113]  lookupTimeSig:vector  ETV
vector 210229  Network.dyn_peer[114]  lookupHopsSig:vector  ETV
vector 210228  Network.dyn_peer[114]  lookupTimeSig:vector  ETV
vector 210231  Network.dyn_peer[115]  lookupHopsSig:vector  ETV
vector 210230  Network.dyn_peer[115]  lookupTimeSig:vector  ETV
vector 210233  Network.dyn_peer[116]  lookupHopsSig:vector  ETV
vector 210232  Network.dyn_peer[116]  lookupTimeSig:vector  ETV
vector 210235  Network.dyn_peer[117]  lookupHopsSig:vector  ETV
vector 210234  Network.dyn_peer[117]  lookupTimeSig:vector  ETV
vector 210237  Network.dyn_peer[118]  lookupHopsSig:vector  ETV
vector 210236  Network.dyn_peer[118]  lookupTimeSig:vector  ETV
vector 210239  Network.dyn_peer[119]  lookupHopsSig:vector  ETV
vector 210238  Network.dyn_peer[119]  lookupTimeSig:vector  ETV
vector 210241  Network.dyn_peer[120]  lookupHopsSig:vector  ETV
vector 210240  Network.dyn_peer[120]  lookupTimeSig:vector  ETV
vector 210243  Network.dyn_peer[121]  lookupHopsSig:vector  ETV
vector 210242  Network.dyn_peer[121]  lookupTimeSig:vector  ETV
vector 210245  Network.dyn_peer[122]  lookupHopsSig:vector  ETV
vector 210244  Network.dyn_peer[122]  lookupTimeSig:vector  ETV
vector 210247  Network.dyn_peer[123]  lookupHopsSig:vector  ETV
vector 210246  Network.dyn_peer[123]  lookupTimeSig:vector  ETV
vector 210249  Network.dyn_peer[124]  lookupHopsSig:vector  ETV
vector 210248  Network.dyn_peer[124]  lookupTimeSig:vector  ETV
vector 210251  Network.dyn_peer[125]  lookupHopsSig:vector  ETV
vector 210250  Network.dyn_peer[125]  lookupTimeSig:vector  ETV
vector 210253  Network.dyn_peer[126]  lookupHopsSig:vector  ETV
vector 210252  Network.dyn_peer[126]  lookupTimeSig:vector  ETV
vector 210255  Network.dyn_peer[127]  lookupHopsSig:vector  ETV
vector 210254  Network.dyn_peer[127]  lookupTimeSig:vector  ETV
vector 210257  Network.dyn_peer[128]  lookupHopsSig:vector  ETV
vector 210256  Network.dyn_peer[128]  lookupTimeSig:vector  ETV
vector 210259  Network.dyn_peer[129]  lookupHopsSig:vector  ETV
vector 210258  Network.dyn_peer[129]  lookupTimeSig:vector  ETV
vector 210261  Network.dyn_peer[130]  lookupHopsSig:vector  ETV
vector 210260  Network.dyn_peer[130]  lookupTimeSig:vector  ETV
vector 210263  Network.dyn_peer[131]  lookupHopsSig:vector  ETV
vector 210262  Network.dyn_peer[131]  lookupTimeSig:vector  ETV
vector 210265  Network.dyn_peer[132]  lookupHopsSig:vector  ETV
vector 210264  Network.dyn_peer[132]  lookupTimeSig:vector  ETV
vector 210267  Network.dyn_peer[133]  lookupHopsSig:vector  ETV
vector 210266  Network.dyn_peer[133]  lookupTimeSig:vector  ETV
vector 210269  Network.dyn_peer[134]  lookupHopsSig:vector  ETV
vector 210268  Network.dyn_peer[134]  lookupTimeSig:vector  ETV
vector 210271  Network.dyn_peer[135]  lookupHopsSig:vector  ETV
vector 210270  Network.dyn_peer[135]  lookupTimeSig:vector  ETV
vector 210273  Network.dyn_peer[136]  lookupHopsSig:vector  ETV
vector 210272  Network.dyn_peer[136]  lookupTimeSig:vector  ETV
vector 210275  Network.dyn_peer[137]  lookupHopsSig:vector  ETV
vector 210274  Network.dyn_peer[137]  lookupTimeSig:vector  ETV
vector 210277  Network.dyn_peer[138]  lookupHopsSig:vector  ETV
vector 210276  Network.dyn_peer[138]  lookupTimeSig:vector  ETV
vector 210279  Network.dyn_peer[139]  lookupHopsSig:vector  ETV
vector 210278  Network.dyn_peer[139]  lookupTimeSig:vector  ETV
vector 210281  Network.dyn_peer[140]  lookupHopsSig:vector  ETV
vector 210280  Network.dyn_peer[140]  lookupTimeSig:vector  ETV
vector 210283  Network.dyn_peer[141]  lookupHopsSig:vector  ETV
vector 210282  Network.dyn_peer[141]  lookupTimeSig:vector  ETV
vector 210285  Network.dyn_peer[142]  lookupHopsSig:vector  ETV
vector 210284  Network.dyn_peer[142]  lookupTimeSig:vector  ETV
vector 210287  Network.dyn_peer[143]  lookupHopsSig:vector  ETV
vector 210286  Network.dyn_peer[143]  lookupTimeSig:vector  ETV
vector 210289  Network.dyn_peer[144]  lookupHopsSig:vector  ETV
vector 210288  Network.dyn_peer[144]  lookupTimeSig:vector  ETV
vector 210291  Network.dyn_peer[145]  lookupHopsSig:vector  ETV
vector 210290  Network.dyn_peer[145]  lookupTimeSig:vector  ETV
vector 210293  Network.dyn_peer[146]  lookupHopsSig:vector  ETV
vector 210292  Network.dyn_peer[146]  lookupTimeSig:vector  ETV
vector 210295  Network.dyn_peer[147]  lookupHopsSig:vector  ETV
vector 210294  Network.dyn_peer[147]  lookupTimeSig:vector  ETV
vector 210297  Network.dyn_peer[148]  lookupHopsSig:vector  ETV
vector 210296  Network.dyn_peer[148]  lookupTimeSig:vector  ETV
vector 210299  Network.dyn_peer[149]  lookupHopsSig:vector  ETV
vector 210298  Network.dyn_peer[149]  lookupTimeSig:vector  ETV
vector 210301  Network.dyn_peer[150]  lookupHopsSig:vector  ETV
vector 210300  Network.dyn_peer[150]  lookupTimeSig:vector  ETV
vector 210305  Network.dyn_peer[152]  lookupHopsSig:vector  ETV
vector 210304  Network.dyn_peer[152]  lookupTimeSig:vector  ETV
vector 210303  Network.dyn_peer[151]  lookupHopsSig:vector  ETV
vector 210302  Network.dyn_peer[151]  lookupTimeSig:vector  ETV
vector 210307  Network.dyn_peer[153]  lookupHopsSig:vector  ETV
vector 210306  Network.dyn_peer[153]  lookupTimeSig:vector  ETV
vector 210309  Network.dyn_peer[154]  lookupHopsSig:vector  ETV
vector 210308  Network.dyn_peer[154]  lookupTimeSig:vector  ETV
vector 210311  Network.dyn_peer[155]  lookupHopsSig:vector  ETV
vector 210310  Network.dyn_peer[155]  lookupTimeSig:vector  ETV
vector 210313  Network.dyn_peer[156]  lookupHopsSig:vector  ETV
vector 210312  Network.dyn_peer[156]  lookupTimeSig:vector  ETV
vector 210315  Network.dyn_peer[157]  lookupHopsSig:vector  ETV
vector 210314  Network.dyn_peer[157]  lookupTimeSig:vector  ETV
vector 210317  Network.dyn_peer[158]  lookupHopsSig:vector  ETV
vector 210316  Network.dyn_peer[158]  lookupTimeSig:vector  ETV
vector 210319  Network.dyn_peer[159]  lookupHopsSig:vector  ETV
vector 210318  Network.dyn_peer[159]  lookupTimeSig:vector  ETV
vector 210323  Network.dyn_peer[161]  lookupHopsSig:vector  ETV
vector 210322  Network.dyn_peer[161]  lookupTimeSig:vector  ETV
vector 210321  Network.dyn_peer[160]  lookupHopsSig:vector  ETV
vector 210320  Network.dyn_peer[160]  lookupTimeSig:vector  ETV
vector 210325  Network.dyn_peer[162]  lookupHopsSig:vector  ETV
vector 210324  Network.dyn_peer[162]  lookupTimeSig:vector  ETV
vector 210327  Network.dyn_peer[163]  lookupHopsSig:vector  ETV
vector 210326  Network.dyn_peer[163]  lookupTimeSig:vector  ETV
vector 210329  Network.dyn_peer[164]  lookupHopsSig:vector  ETV
vector 210328  Network.dyn_peer[164]  lookupTimeSig:vector  ETV
vector 210331  Network.dyn_peer[165]  lookupHopsSig:vector  ETV
vector 210330  Network.dyn_peer[165]  lookupTimeSig:vector  ETV
vector 210333  Network.dyn_peer[166]  lookupHopsSig:vector  ETV
vector 210332  Network.dyn_peer[166]  lookupTimeSig:vector  ETV
vector 210335  Network.dyn_peer[167]  lookupHopsSig:vector  ETV
vector 210334  Network.dyn_peer[167]  lookupTimeSig:vector  ETV
vector 210337  Network.dyn_peer[168]  lookupHopsSig:vector  ETV
vector 210336  Network.dyn_peer[168]  lookupTimeSig:vector  ETV
vector 210339  Network.dyn_peer[169]  lookupHopsSig:vector  ETV
vector 210338  Network.dyn_peer[169]  lookupTimeSig:vector  ETV
vector 210341  Network.dyn_peer[170]  lookupHopsSig:vector  ETV
vector 210340  Network.dyn_peer[170]  lookupTimeSig:vector  ETV
vector 210343  Network.dyn_peer[171]  lookupHopsSig:vector  ETV
vector 210342  Network.dyn_peer[171]  lookupTimeSig:vector  ETV
vector 210345  Network.dyn_peer[172]  lookupHopsSig:vector  ETV
vector 210344  Network.dyn_peer[172]  lookupTimeSig:vector  ETV
vector 210347  Network.dyn_peer[173]  lookupHopsSig:vector  ETV
vector 210346  Network.dyn_peer[173]  lookupTimeSig:vector  ETV
vector 210349  Network.dyn_peer[174]  lookupHopsSig:vector  ETV
vector 210348  Network.dyn_peer[174]  lookupTimeSig:vector  ETV
vector 210351  Network.dyn_peer[175]  lookupHopsSig:vector  ETV
vector 210350  Network.dyn_peer[175]  lookupTimeSig:vector  ETV
vector 210353  Network.dyn_peer[176]  lookupHopsSig:vector  ETV
vector 210352  Network.dyn_peer[176]  lookupTimeSig:vector  ETV
vector 210355  Network.dyn_peer[177]  lookupHopsSig:vector  ETV
vector 210354  Network.dyn_peer[177]  lookupTimeSig:vector  ETV
vector 210357  Network.dyn_peer[178]  lookupHopsSig:vector  ETV
vector 210356  Network.dyn_peer[178]  lookupTimeSig:vector  ETV
vector 210359  Network.dyn_peer[179]  lookupHopsSig:vector  ETV
vector 210358  Network.dyn_peer[179]  lookupTimeSig:vector  ETV
vector 210363  Network.dyn_peer[181]  lookupHopsSig:vector  ETV
vector 210362  Network.dyn_peer[181]  lookupTimeSig:vector  ETV
vector 210361  Network.dyn_peer[180]  lookupHopsSig:vector  ETV
vector 210360  Network.dyn_peer[180]  lookupTimeSig:vector  ETV
vector 210365  Network.dyn_peer[182]  lookupHopsSig:vector  ETV
vector 210364  Network.dyn_peer[182]  lookupTimeSig:vector  ETV
vector 210367  Network.dyn_peer[183]  lookupHopsSig:vector  ETV
vector 210366  Network.dyn_peer[183]  lookupTimeSig:vector  ETV
vector 210369  Network.dyn_peer[184]  lookupHopsSig:vector  ETV
vector 210368  Network.dyn_peer[184]  lookupTimeSig:vector  ETV
vector 210371  Network.dyn_peer[185]  lookupHopsSig:vector  ETV
vector 210370  Network.dyn_peer[185]  lookupTimeSig:vector  ETV
vector 210373  Network.dyn_peer[186]  lookupHopsSig:vector  ETV
vector 210372  Network.dyn_peer[186]  lookupTimeSig:vector  ETV
vector 210375  Network.dyn_peer[187]  lookupHopsSig:vector  ETV
vector 210374  Network.dyn_peer[187]  lookupTimeSig:vector  ETV
vector 210377  Network.dyn_peer[188]  lookupHopsSig:vector  ETV
vector 210376  Network.dyn_peer[188]  lookupTimeSig:vector  ETV
vector 210379  Network.dyn_peer[189]  lookupHopsSig:vector  ETV
vector 210378  Network.dyn_peer[189]  lookupTimeSig:vector  ETV
vector 210381  Network.dyn_peer[190]  lookupHopsSig:vector  ETV
vector 210380  Network.dyn_peer[190]  lookupTimeSig:vector  ETV
vector 210383  Network.dyn_peer[191]  lookupHopsSig:vector  ETV
vector 210382  Network.dyn_peer[191]  lookupTimeSig:vector  ETV
vector 210385  Network.dyn_peer[192]  lookupHopsSig:vector  ETV
vector 210384  Network.dyn_peer[192]  lookupTimeSig:vector  ETV
vector 210387  Network.dyn_peer[193]  lookupHopsSig:vector  ETV
vector 210386  Network.dyn_peer[193]  lookupTimeSig:vector  ETV
vector 210389  Network.dyn_peer[194]  lookupHopsSig:vector  ETV
vector 210388  Network.dyn_peer[194]  lookupTimeSig:vector  ETV
vector 210391  Network.dyn_peer[195]  lookupHopsSig:vector  ETV
vector 210390  Network.dyn_peer[195]  lookupTimeSig:vector  ETV
vector 210393  Network.dyn_peer[196]  lookupHopsSig:vector  ETV
vector 210392  Network.dyn_peer[196]  lookupTimeSig:vector  ETV
vector 210395  Network.dyn_peer[197]  lookupHopsSig:vector  ETV
vector 210394  Network.dyn_peer[197]  lookupTimeSig:vector  ETV
vector 210397  Network.dyn_peer[198]  lookupHopsSig:vector  ETV
vector 210396  Network.dyn_peer[198]  lookupTimeSig:vector  ETV
vector 210401  Network.dyn_peer[200]  lookupHopsSig:vector  ETV
vector 210400  Network.dyn_peer[200]  lookupTimeSig:vector  ETV
vector 210399  Network.dyn_peer[199]  lookupHopsSig:vector  ETV
vector 210398  Network.dyn_peer[199]  lookupTimeSig:vector  ETV
vector 210403  Network.dyn_peer[201]  lookupHopsSig:vector  ETV
vector 210402  Network.dyn_peer[201]  lookupTimeSig:vector  ETV
vector 210405  Network.dyn_peer[202]  lookupHopsSig:vector  ETV
vector 210404  Network.dyn_peer[202]  lookupTimeSig:vector  ETV
vector 210407  Network.dyn_peer[203]  lookupHopsSig:vector  ETV
vector 210406  Network.dyn_peer[203]  lookupTimeSig:vector  ETV
vector 210409  Network.dyn_peer[204]  lookupHopsSig:vector  ETV
vector 210408  Network.dyn_peer[204]  lookupTimeSig:vector  ETV
vector 210411  Network.dyn_peer[205]  lookupHopsSig:vector  ETV
vector 210410  Network.dyn_peer[205]  lookupTimeSig:vector  ETV
vector 210413  Network.dyn_peer[206]  lookupHopsSig:vector  ETV
vector 210412  Network.dyn_peer[206]  lookupTimeSig:vector  ETV
vector 210415  Network.dyn_peer[207]  lookupHopsSig:vector  ETV
vector 210414  Network.dyn_peer[207]  lookupTimeSig:vector  ETV
vector 210417  Network.dyn_peer[208]  lookupHopsSig:vector  ETV
vector 210416  Network.dyn_peer[208]  lookupTimeSig:vector  ETV
vector 210419  Network.dyn_peer[209]  lookupHopsSig:vector  ETV
vector 210418  Network.dyn_peer[209]  lookupTimeSig:vector  ETV
vector 210421  Network.dyn_peer[210]  lookupHopsSig:vector  ETV
vector 210420  Network.dyn_peer[210]  lookupTimeSig:vector  ETV
vector 210423  Network.dyn_peer[211]  lookupHopsSig:vector  ETV
vector 210422  Network.dyn_peer[211]  lookupTimeSig:vector  ETV
vector 210425  Network.dyn_peer[212]  lookupHopsSig:vector  ETV
vector 210424  Network.dyn_peer[212]  lookupTimeSig:vector  ETV
vector 210427  Network.dyn_peer[213]  lookupHopsSig:vector  ETV
vector 210426  Network.dyn_peer[213]  lookupTimeSig:vector  ETV
vector 210429  Network.dyn_peer[214]  lookupHopsSig:vector  ETV
vector 210428  Network.dyn_peer[214]  lookupTimeSig:vector  ETV
vector 210433  Network.dyn_peer[216]  lookupHopsSig:vector  ETV
vector 210432  Network.dyn_peer[216]  lookupTimeSig:vector  ETV
vector 210431  Network.dyn_peer[215]  lookupHopsSig:vector  ETV
vector 210430  Network.dyn_peer[215]  lookupTimeSig:vector  ETV
vector 210435  Network.dyn_peer[217]  lookupHopsSig:vector  ETV
vector 210434  Network.dyn_peer[217]  lookupTimeSig:vector  ETV
vector 210437  Network.dyn_peer[218]  lookupHopsSig:vector  ETV
vector 210436  Network.dyn_peer[218]  lookupTimeSig:vector  ETV
vector 210439  Network.dyn_peer[219]  lookupHopsSig:vector  ETV
vector 210438  Network.dyn_peer[219]  lookupTimeSig:vector  ETV
vector 210441  Network.dyn_peer[220]  lookupHopsSig:vector  ETV
vector 210440  Network.dyn_peer[220]  lookupTimeSig:vector  ETV
vector 210443  Network.dyn_peer[221]  lookupHopsSig:vector  ETV
vector 210442  Network.dyn_peer[221]  lookupTimeSig:vector  ETV
vector 210445  Network.dyn_peer[222]  lookupHopsSig:vector  ETV
vector 210444  Network.dyn_peer[222]  lookupTimeSig:vector  ETV
vector 210447  Network.dyn_peer[223]  lookupHopsSig:vector  ETV
vector 210446  Network.dyn_peer[223]  lookupTimeSig:vector  ETV
vector 210449  Network.dyn_peer[224]  lookupHopsSig:vector  ETV
vector 210448  Network.dyn_peer[224]  lookupTimeSig:vector  ETV
vector 210451  Network.dyn_peer[225]  lookupHopsSig:vector  ETV
vector 210450  Network.dyn_peer[225]  lookupTimeSig:vector  ETV
vector 210453  Network.dyn_peer[226]  lookupHopsSig:vector  ETV
vector 210452  Network.dyn_peer[226]  lookupTimeSig:vector  ETV
vector 210455  Network.dyn_peer[227]  lookupHopsSig:vector  ETV
vector 210454  Network.dyn_peer[227]  lookupTimeSig:vector  ETV
vector 210457  Network.dyn_peer[228]  lookupHopsSig:vector  ETV
vector 210456  Network.dyn_peer[228]  lookupTimeSig:vector  ETV
vector 210459  Network.dyn_peer[229]  lookupHopsSig:vector  ETV
vector 210458  Network.dyn_peer[229]  lookupTimeSig:vector  ETV
vector 210461  Network.dyn_peer[230]  lookupHopsSig:vector  ETV
vector 210460  Network.dyn_peer[230]  lookupTimeSig:vector  ETV
vector 210463  Network.dyn_peer[231]  lookupHopsSig:vector  ETV
vector 210462  Network.dyn_peer[231]  lookupTimeSig:vector  ETV
vector 210467  Network.dyn_peer[233]  lookupHopsSig:vector  ETV