version 2
run Stability-225-20130521-22:42:56-23591
attr configname Stability
attr datetime 20130521-22:42:56
attr experiment Stability
attr inifile omnetpp.ini
attr iterationvars $0=0.0625
attr iterationvars2 "$0=0.0625, $repetition=15"
attr measurement $0=0.0625
attr network Network
attr processid 23591
attr repetition 15
attr replication #15
attr resultdir results
attr runnumber 225
attr seedset 225

vector 450009  Network.dyn_peer[4]  lookupHopsSig:vector  ETV
vector 450008  Network.dyn_peer[4]  lookupTimeSig:vector  ETV
vector 450005  Network.dyn_peer[2]  lookupHopsSig:vector  ETV
vector 450004  Network.dyn_peer[2]  lookupTimeSig:vector  ETV
vector 450013  Network.dyn_peer[6]  lookupHopsSig:vector  ETV
vector 450012  Network.dyn_peer[6]  lookupTimeSig:vector  ETV
vector 450007  Network.dyn_peer[3]  lookupHopsSig:vector  ETV
vector 450006  Network.dyn_peer[3]  lookupTimeSig:vector  ETV
vector 450001  Network.dyn_peer[0]  lookupHopsSig:vector  ETV
vector 450000  Network.dyn_peer[0]  lookupTimeSig:vector  ETV
vector 450003  Network.dyn_peer[1]  lookupHopsSig:vector  ETV
vector 450002  Network.dyn_peer[1]  lookupTimeSig:vector  ETV
vector 450011  Network.dyn_peer[5]  lookupHopsSig:vector  ETV
vector 450010  Network.dyn_peer[5]  lookupTimeSig:vector  ETV
vector 450015  Network.dyn_peer[7]  lookupHopsSig:vector  ETV
vector 450014  Network.dyn_peer[7]  lookupTimeSig:vector  ETV
vector 450019  Network.dyn_peer[9]  lookupHopsSig:vector  ETV
vector 450018  Network.dyn_peer[9]  lookupTimeSig:vector  ETV
vector 450021  Network.dyn_peer[10]  lookupHopsSig:vector  ETV
vector 450020  Network.dyn_peer[10]  lookupTimeSig:vector  ETV
vector 450031  Network.dyn_peer[15]  lookupHopsSig:vector  ETV
vector 450030  Network.dyn_peer[15]  lookupTimeSig:vector  ETV
vector 450017  Network.dyn_peer[8]  lookupHopsSig:vector  ETV
vector 450016  Network.dyn_peer[8]  lookupTimeSig:vector  ETV
vector 450025  Network.dyn_peer[12]  lookupHopsSig:vector  ETV
vector 450024  Network.dyn_peer[12]  lookupTimeSig:vector  ETV
vector 450029  Network.dyn_peer[14]  lookupHopsSig:vector  ETV
vector 450028  Network.dyn_peer[14]  lookupTimeSig:vector  ETV
vector 450027  Network.dyn_peer[13]  lookupHopsSig:vector  ETV
vector 450026  Network.dyn_peer[13]  lookupTimeSig:vector  ETV
vector 450033  Network.dyn_peer[16]  lookupHopsSig:vector  ETV
vector 450032  Network.dyn_peer[16]  lookupTimeSig:vector  ETV
vector 450023  Network.dyn_peer[11]  lookupHopsSig:vector  ETV
vector 450022  Network.dyn_peer[11]  lookupTimeSig:vector  ETV
vector 450039  Network.dyn_peer[19]  lookupHopsSig:vector  ETV
vector 450038  Network.dyn_peer[19]  lookupTimeSig:vector  ETV
vector 450037  Network.dyn_peer[18]  lookupHopsSig:vector  ETV
vector 450036  Network.dyn_peer[18]  lookupTimeSig:vector  ETV
vector 450045  Network.dyn_peer[22]  lookupHopsSig:vector  ETV
vector 450044  Network.dyn_peer[22]  lookupTimeSig:vector  ETV
vector 450049  Network.dyn_peer[24]  lookupHopsSig:vector  ETV
vector 450048  Network.dyn_peer[24]  lookupTimeSig:vector  ETV
vector 450047  Network.dyn_peer[23]  lookupHopsSig:vector  ETV
vector 450046  Network.dyn_peer[23]  lookupTimeSig:vector  ETV
vector 450053  Network.dyn_peer[26]  lookupHopsSig:vector  ETV
vector 450052  Network.dyn_peer[26]  lookupTimeSig:vector  ETV
vector 450041  Network.dyn_peer[20]  lookupHopsSig:vector  ETV
vector 450040  Network.dyn_peer[20]  lookupTimeSig:vector  ETV
vector 450057  Network.dyn_peer[28]  lookupHopsSig:vector  ETV
vector 450056  Network.dyn_peer[28]  lookupTimeSig:vector  ETV
vector 450035  Network.dyn_peer[17]  lookupHopsSig:vector  ETV
vector 450034  Network.dyn_peer[17]  lookupTimeSig:vector  ETV
vector 450051  Network.dyn_peer[25]  lookupHopsSig:vector  ETV
vector 450050  Network.dyn_peer[25]  lookupTimeSig:vector  ETV
vector 450043  Network.dyn_peer[21]  lookupHopsSig:vector  ETV
vector 450042  Network.dyn_peer[21]  lookupTimeSig:vector  ETV
vector 450059  Network.dyn_peer[29]  lookupHopsSig:vector  ETV
vector 450058  Network.dyn_peer[29]  lookupTimeSig:vector  ETV
vector 450063  Network.dyn_peer[31]  lookupHopsSig:vector  ETV
vector 450062  Network.dyn_peer[31]  lookupTimeSig:vector  ETV
vector 450065  Network.dyn_peer[32]  lookupHopsSig:vector  ETV
vector 450064  Network.dyn_peer[32]  lookupTimeSig:vector  ETV
vector 450061  Network.dyn_peer[30]  lookupHopsSig:vector  ETV
vector 450060  Network.dyn_peer[30]  lookupTimeSig:vector  ETV
vector 450071  Network.dyn_peer[35]  lookupHopsSig:vector  ETV
vector 450070  Network.dyn_peer[35]  lookupTimeSig:vector  ETV
vector 450073  Network.dyn_peer[36]  lookupHopsSig:vector  ETV
vector 450072  Network.dyn_peer[36]  lookupTimeSig:vector  ETV
vector 450055  Network.dyn_peer[27]  lookupHopsSig:vector  ETV
vector 450054  Network.dyn_peer[27]  lookupTimeSig:vector  ETV
vector 450081  Network.dyn_peer[40]  lookupHopsSig:vector  ETV
vector 450080  Network.dyn_peer[40]  lookupTimeSig:vector  ETV
vector 450079  Network.dyn_peer[39]  lookupHopsSig:vector  ETV
vector 450078  Network.dyn_peer[39]  lookupTimeSig:vector  ETV
vector 450067  Network.dyn_peer[33]  lookupHopsSig:vector  ETV
vector 450066  Network.dyn_peer[33]  lookupTimeSig:vector  ETV
vector 450083  Network.dyn_peer[41]  lookupHopsSig:vector  ETV
vector 450082  Network.dyn_peer[41]  lookupTimeSig:vector  ETV
vector 450069  Network.dyn_peer[34]  lookupHopsSig:vector  ETV
vector 450068  Network.dyn_peer[34]  lookupTimeSig:vector  ETV
vector 450085  Network.dyn_peer[42]  lookupHopsSig:vector  ETV
vector 450084  Network.dyn_peer[42]  lookupTimeSig:vector  ETV
vector 450077  Network.dyn_peer[38]  lookupHopsSig:vector  ETV
vector 450076  Network.dyn_peer[38]  lookupTimeSig:vector  ETV
vector 450075  Network.dyn_peer[37]  lookupHopsSig:vector  ETV
vector 450074  Network.dyn_peer[37]  lookupTimeSig:vector  ETV
vector 450089  Network.dyn_peer[44]  lookupHopsSig:vector  ETV
vector 450088  Network.dyn_peer[44]  lookupTimeSig:vector  ETV
vector 450095  Network.dyn_peer[47]  lookupHopsSig:vector  ETV
vector 450094  Network.dyn_peer[47]  lookupTimeSig:vector  ETV
vector 450087  Network.dyn_peer[43]  lookupHopsSig:vector  ETV
vector 450086  Network.dyn_peer[43]  lookupTimeSig:vector  ETV
vector 450099  Network.dyn_peer[49]  lookupHopsSig:vector  ETV
vector 450098  Network.dyn_peer[49]  lookupTimeSig:vector  ETV
vector 450093  Network.dyn_peer[46]  lookupHopsSig:vector  ETV
vector 450092  Network.dyn_peer[46]  lookupTimeSig:vector  ETV
vector 450103  Network.dyn_peer[51]  lookupHopsSig:vector  ETV
vector 450102  Network.dyn_peer[51]  lookupTimeSig:vector  ETV
vector 450091  Network.dyn_peer[45]  lookupHopsSig:vector  ETV
vector 450090  Network.dyn_peer[45]  lookupTimeSig:vector  ETV
vector 450101  Network.dyn_peer[50]  lookupHopsSig:vector  ETV
vector 450100  Network.dyn_peer[50]  lookupTimeSig:vector  ETV
vector 450127  Network.dyn_peer[63]  lookupHopsSig:vector  ETV
vector 450126  Network.dyn_peer[63]  lookupTimeSig:vector  ETV
vector 450105  Network.dyn_peer[52]  lookupHopsSig:vector  ETV
vector 450104  Network.dyn_peer[52]  lookupTimeSig:vector  ETV
vector 450109  Network.dyn_peer[54]  lookupHopsSig:vector  ETV
vector 450108  Network.dyn_peer[54]  lookupTimeSig:vector  ETV
vector 450111  Network.dyn_peer[55]  lookupHopsSig:vector  ETV
vector 450110  Network.dyn_peer[55]  lookupTimeSig:vector  ETV
vector 450123  Network.dyn_peer[61]  lookupHopsSig:vector  ETV
vector 450122  Network.dyn_peer[61]  lookupTimeSig:vector  ETV
vector 450117  Network.dyn_peer[58]  lookupHopsSig:vector  ETV
vector 450116  Network.dyn_peer[58]  lookupTimeSig:vector  ETV
vector 450097  Network.dyn_peer[48]  lookupHopsSig:vector  ETV
vector 450096  Network.dyn_peer[48]  lookupTimeSig:vector  ETV
vector 450107  Network.dyn_peer[53]  lookupHopsSig:vector  ETV
vector 450106  Network.dyn_peer[53]  lookupTimeSig:vector  ETV
vector 450121  Network.dyn_peer[60]  lookupHopsSig:vector  ETV
vector 450120  Network.dyn_peer[60]  lookupTimeSig:vector  ETV
vector 450137  Network.dyn_peer[68]  lookupHopsSig:vector  ETV
vector 450136  Network.dyn_peer[68]  lookupTimeSig:vector  ETV
vector 450125  Network.dyn_peer[62]  lookupHopsSig:vector  ETV
vector 450124  Network.dyn_peer[62]  lookupTimeSig:vector  ETV
vector 450135  Network.dyn_peer[67]  lookupHopsSig:vector  ETV
vector 450134  Network.dyn_peer[67]  lookupTimeSig:vector  ETV
vector 450115  Network.dyn_peer[57]  lookupHopsSig:vector  ETV
vector 450114  Network.dyn_peer[57]  lookupTimeSig:vector  ETV
vector 450119  Network.dyn_peer[59]  lookupHopsSig:vector  ETV
vector 450118  Network.dyn_peer[59]  lookupTimeSig:vector  ETV
vector 450131  Network.dyn_peer[65]  lookupHopsSig:vector  ETV
vector 450130  Network.dyn_peer[65]  lookupTimeSig:vector  ETV
vector 450113  Network.dyn_peer[56]  lookupHopsSig:vector  ETV
vector 450112  Network.dyn_peer[56]  lookupTimeSig:vector  ETV
vector 450129  Network.dyn_peer[64]  lookupHopsSig:vector  ETV
vector 450128  Network.dyn_peer[64]  lookupTimeSig:vector  ETV
vector 450147  Network.dyn_peer[73]  lookupHopsSig:vector  ETV
vector 450146  Network.dyn_peer[73]  lookupTimeSig:vector  ETV
vector 450141  Network.dyn_peer[70]  lookupHopsSig:vector  ETV
vector 450140  Network.dyn_peer[70]  lookupTimeSig:vector  ETV
vector 450133  Network.dyn_peer[66]  lookupHopsSig:vector  ETV
vector 450132  Network.dyn_peer[66]  lookupTimeSig:vector  ETV
vector 450149  Network.dyn_peer[74]  lookupHopsSig:vector  ETV
vector 450148  Network.dyn_peer[74]  lookupTimeSig:vector  ETV
vector 450151  Network.dyn_peer[75]  lookupHopsSig:vector  ETV
vector 450150  Network.dyn_peer[75]  lookupTimeSig:vector  ETV
vector 450145  Network.dyn_peer[72]  lookupHopsSig:vector  ETV
vector 450144  Network.dyn_peer[72]  lookupTimeSig:vector  ETV
vector 450153  Network.dyn_peer[76]  lookupHopsSig:vector  ETV
vector 450152  Network.dyn_peer[76]  lookupTimeSig:vector  ETV
vector 450157  Network.dyn_peer[78]  lookupHopsSig:vector  ETV
vector 450156  Network.dyn_peer[78]  lookupTimeSig:vector  ETV
vector 450163  Network.dyn_peer[81]  lookupHopsSig:vector  ETV
vector 450162  Network.dyn_peer[81]  lookupTimeSig:vector  ETV
vector 450167  Network.dyn_peer[83]  lookupHopsSig:vector  ETV
vector 450166  Network.dyn_peer[83]  lookupTimeSig:vector  ETV
vector 450165  Network.dyn_peer[82]  lookupHopsSig:vector  ETV
vector 450164  Network.dyn_peer[82]  lookupTimeSig:vector  ETV
vector 450159  Network.dyn_peer[79]  lookupHopsSig:vector  ETV
vector 450158  Network.dyn_peer[79]  lookupTimeSig:vector  ETV
vector 450161  Network.dyn_peer[80]  lookupHopsSig:vector  ETV
vector 450160  Network.dyn_peer[80]  lookupTimeSig:vector  ETV
vector 450139  Network.dyn_peer[69]  lookupHopsSig:vector  ETV
vector 450138  Network.dyn_peer[69]  lookupTimeSig:vector  ETV
vector 450171  Network.dyn_peer[85]  lookupHopsSig:vector  ETV
vector 450170  Network.dyn_peer[85]  lookupTimeSig:vector  ETV
vector 450177  Network.dyn_peer[88]  lookupHopsSig:vector  ETV
vector 450176  Network.dyn_peer[88]  lookupTimeSig:vector  ETV
vector 450143  Network.dyn_peer[71]  lookupHopsSig:vector  ETV
vector 450142  Network.dyn_peer[71]  lookupTimeSig:vector  ETV
vector 450179  Network.dyn_peer[89]  lookupHopsSig:vector  ETV
vector 450178  Network.dyn_peer[89]  lookupTimeSig:vector  ETV
vector 450169  Network.dyn_peer[84]  lookupHopsSig:vector  ETV
vector 450168  Network.dyn_peer[84]  lookupTimeSig:vector  ETV
vector 450173  Network.dyn_peer[86]  lookupHopsSig:vector  ETV
vector 450172  Network.dyn_peer[86]  lookupTimeSig:vector  ETV
vector 450181  Network.dyn_peer[90]  lookupHopsSig:vector  ETV
vector 450180  Network.dyn_peer[90]  lookupTimeSig:vector  ETV
vector 450175  Network.dyn_peer[87]  lookupHopsSig:vector  ETV
vector 450174  Network.dyn_peer[87]  lookupTimeSig:vector  ETV
vector 450187  Network.dyn_peer[93]  lookupHopsSig:vector  ETV
vector 450186  Network.dyn_peer[93]  lookupTimeSig:vector  ETV
vector 450155  Network.dyn_peer[77]  lookupHopsSig:vector  ETV
vector 450154  Network.dyn_peer[77]  lookupTimeSig:vector  ETV
vector 450183  Network.dyn_peer[91]  lookupHopsSig:vector  ETV
vector 450182  Network.dyn_peer[91]  lookupTimeSig:vector  ETV
vector 450193  Network.dyn_peer[96]  lookupHopsSig:vector  ETV
vector 450192  Network.dyn_peer[96]  lookupTimeSig:vector  ETV
vector 450197  Network.dyn_peer[98]  lookupHopsSig:vector  ETV
vector 450196  Network.dyn_peer[98]  lookupTimeSig:vector  ETV
vector 450185  Network.dyn_peer[92]  lookupHopsSig:vector  ETV
vector 450184  Network.dyn_peer[92]  lookupTimeSig:vector  ETV
vector 450191  Network.dyn_peer[95]  lookupHopsSig:vector  ETV
vector 450190  Network.dyn_peer[95]  lookupTimeSig:vector  ETV
vector 450207  Network.dyn_peer[103]  lookupHopsSig:vector  ETV
vector 450206  Network.dyn_peer[103]  lookupTimeSig:vector  ETV
vector 450189  Network.dyn_peer[94]  lookupHopsSig:vector  ETV
vector 450188  Network.dyn_peer[94]  lookupTimeSig:vector  ETV
vector 450199  Network.dyn_peer[99]  lookupHopsSig:vector  ETV
vector 450198  Network.dyn_peer[99]  lookupTimeSig:vector  ETV
vector 450195  Network.dyn_peer[97]  lookupHopsSig:vector  ETV
vector 450194  Network.dyn_peer[97]  lookupTimeSig:vector  ETV
vector 450205  Network.dyn_peer[102]  lookupHopsSig:vector  ETV
vector 450204  Network.dyn_peer[102]  lookupTimeSig:vector  ETV
vector 450203  Network.dyn_peer[101]  lookupHopsSig:vector  ETV
vector 450202  Network.dyn_peer[101]  lookupTimeSig:vector  ETV
vector 450213  Network.dyn_peer[106]  lookupHopsSig:vector  ETV
vector 450212  Network.dyn_peer[106]  lookupTimeSig:vector  ETV
vector 450225  Network.dyn_peer[112]  lookupHopsSig:vector  ETV
vector 450224  Network.dyn_peer[112]  lookupTimeSig:vector  ETV
vector 450211  Network.dyn_peer[105]  lookupHopsSig:vector  ETV
vector 450210  Network.dyn_peer[105]  lookupTimeSig:vector  ETV
vector 450221  Network.dyn_peer[110]  lookupHopsSig:vector  ETV
vector 450220  Network.dyn_peer[110]  lookupTimeSig:vector  ETV
vector 450209  Network.dyn_peer[104]  lookupHopsSig:vector  ETV
vector 450208  Network.dyn_peer[104]  lookupTimeSig:vector  ETV
vector 450217  Network.dyn_peer[108]  lookupHopsSig:vector  ETV
vector 450216  Network.dyn_peer[108]  lookupTimeSig:vector  ETV
vector 450227  Network.dyn_peer[113]  lookupHopsSig:vector  ETV
vector 450226  Network.dyn_peer[113]  lookupTimeSig:vector  ETV
vector 450231  Network.dyn_peer[115]  lookupHopsSig:vector  ETV
vector 450230  Network.dyn_peer[115]  lookupTimeSig:vector  ETV
vector 450219  Network.dyn_peer[109]  lookupHopsSig:vector  ETV
vector 450218  Network.dyn_peer[109]  lookupTimeSig:vector  ETV
vector 450229  Network.dyn_peer[114]  lookupHopsSig:vector  ETV
vector 450228  Network.dyn_peer[114]  lookupTimeSig:vector  ETV
vector 450233  Network.dyn_peer[116]  lookupHopsSig:vector  ETV
vector 450232  Network.dyn_peer[116]  lookupTimeSig:vector  ETV
vector 450239  Network.dyn_peer[119]  lookupHopsSig:vector  ETV
vector 450238  Network.dyn_peer[119]  lookupTimeSig:vector  ETV
vector 450201  Network.dyn_peer[100]  lookupHopsSig:vector  ETV
vector 450200  Network.dyn_peer[100]  lookupTimeSig:vector  ETV
vector 450215  Network.dyn_peer[107]  lookupHopsSig:vector  ETV
vector 450214  Network.dyn_peer[107]  lookupTimeSig:vector  ETV
vector 450223  Network.dyn_peer[111]  lookupHopsSig:vector  ETV
vector 450222  Network.dyn_peer[111]  lookupTimeSig:vector  ETV
vector 450249  Network.dyn_peer[124]  lookupHopsSig:vector  ETV
vector 450248  Network.dyn_peer[124]  lookupTimeSig:vector  ETV
vector 450253  Network.dyn_peer[126]  lookupHopsSig:vector  ETV
vector 450252  Network.dyn_peer[126]  lookupTimeSig:vector  ETV
vector 450247  Network.dyn_peer[123]  lookupHopsSig:vector  ETV
vector 450246  Network.dyn_peer[123]  lookupTimeSig:vector  ETV
vector 450241  Network.dyn_peer[120]  lookupHopsSig:vector  ETV
vector 450240  Network.dyn_peer[120]  lookupTimeSig:vector  ETV
vector 450237  Network.dyn_peer[118]  lookupHopsSig:vector  ETV
vector 450236  Network.dyn_peer[118]  lookupTimeSig:vector  ETV
vector 450235  Network.dyn_peer[117]  lookupHopsSig:vector  ETV
vector 450234  Network.dyn_peer[117]  lookupTimeSig:vector  ETV
vector 450243  Network.dyn_peer[121]  lookupHopsSig:vector  ETV
vector 450242  Network.dyn_peer[121]  lookupTimeSig:vector  ETV
vector 450257  Network.dyn_peer[128]  lookupHopsSig:vector  ETV
vector 450256  Network.dyn_peer[128]  lookupTimeSig:vector  ETV
vector 450251  Network.dyn_peer[125]  lookupHopsSig:vector  ETV
vector 450250  Network.dyn_peer[125]  lookupTimeSig:vector  ETV
vector 450261  Network.dyn_peer[130]  lookupHopsSig:vector  ETV
vector 450260  Network.dyn_peer[130]  lookupTimeSig:vector  ETV
vector 450275  Network.dyn_peer[137]  lookupHopsSig:vector  ETV
vector 450274  Network.dyn_peer[137]  lookupTimeSig:vector  ETV
vector 450269  Network.dyn_peer[134]  lookupHopsSig:vector  ETV
vector 450268  Network.dyn_peer[134]  lookupTimeSig:vector  ETV
vector 450263  Network.dyn_peer[131]  lookupHopsSig:vector  ETV
vector 450262  Network.dyn_peer[131]  lookupTimeSig:vector  ETV
vector 450267  Network.dyn_peer[133]  lookupHopsSig:vector  ETV
vector 450266  Network.dyn_peer[133]  lookupTimeSig:vector  ETV
vector 450255  Network.dyn_peer[127]  lookupHopsSig:vector  ETV
vector 450254  Network.dyn_peer[127]  lookupTimeSig:vector  ETV
vector 450279  Network.dyn_peer[139]  lookupHopsSig:vector  ETV
vector 450278  Network.dyn_peer[139]  lookupTimeSig:vector  ETV
vector 450289  Network.dyn_peer[144]  lookupHopsSig:vector  ETV
vector 450288  Network.dyn_peer[144]  lookupTimeSig:vector  ETV
vector 450245  Network.dyn_peer[122]  lookupHopsSig:vector  ETV
vector 450244  Network.dyn_peer[122]  lookupTimeSig:vector  ETV
vector 450277  Network.dyn_peer[138]  lookupHopsSig:vector  ETV
vector 450276  Network.dyn_peer[138]  lookupTimeSig:vector  ETV
vector 450265  Network.dyn_peer[132]  lookupHopsSig:vector  ETV
vector 450264  Network.dyn_peer[132]  lookupTimeSig:vector  ETV
vector 450285  Network.dyn_peer[142]  lookupHopsSig:vector  ETV
vector 450284  Network.dyn_peer[142]  lookupTimeSig:vector  ETV
vector 450295  Network.dyn_peer[147]  lookupHopsSig:vector  ETV
vector 450294  Network.dyn_peer[147]  lookupTimeSig:vector  ETV
vector 450307  Network.dyn_peer[153]  lookupHopsSig:vector  ETV
vector 450306  Network.dyn_peer[153]  lookupTimeSig:vector  ETV
vector 450299  Network.dyn_peer[149]  lookupHopsSig:vector  ETV
vector 450298  Network.dyn_peer[149]  lookupTimeSig:vector  ETV
vector 450293  Network.dyn_peer[146]  lookupHopsSig:vector  ETV
vector 450292  Network.dyn_peer[146]  lookupTimeSig:vector  ETV
vector 450271  Network.dyn_peer[135]  lookupHopsSig:vector  ETV
vector 450270  Network.dyn_peer[135]  lookupTimeSig:vector  ETV
vector 450259  Network.dyn_peer[129]  lookupHopsSig:vector  ETV
vector 450258  Network.dyn_peer[129]  lookupTimeSig:vector  ETV
vector 450273  Network.dyn_peer[136]  lookupHopsSig:vector  ETV
vector 450272  Network.dyn_peer[136]  lookupTimeSig:vector  ETV
vector 450291  Network.dyn_peer[145]  lookupHopsSig:vector  ETV
vector 450290  Network.dyn_peer[145]  lookupTimeSig:vector  ETV
vector 450281  Network.dyn_peer[140]  lookupHopsSig:vector  ETV
vector 450280  Network.dyn_peer[140]  lookupTimeSig:vector  ETV
vector 450287  Network.dyn_peer[143]  lookupHopsSig:vector  ETV
vector 450286  Network.dyn_peer[143]  lookupTimeSig:vector  ETV
vector 450303  Network.dyn_peer[151]  lookupHopsSig:vector  ETV
vector 450302  Network.dyn_peer[151]  lookupTimeSig:vector  ETV
vector 450297  Network.dyn_peer[148]  lookupHopsSig:vector  ETV
vector 450296  Network.dyn_peer[148]  lookupTimeSig:vector  ETV
vector 450283  Network.dyn_peer[141]  lookupHopsSig:vector  ETV
vector 450282  Network.dyn_peer[141]  lookupTimeSig:vector  ETV
vector 450309  Network.dyn_peer[154]  lookupHopsSig:vector  ETV
vector 450308  Network.dyn_peer[154]  lookupTimeSig:vector  ETV
vector 450301  Network.dyn_peer[150]  lookupHopsSig:vector  ETV
vector 450300  Network.dyn_peer[150]  lookupTimeSig:vector  ETV
vector 450313  Network.dyn_peer[156]  lookupHopsSig:vector  ETV
vector 450312  Network.dyn_peer[156]  lookupTimeSig:vector  ETV
vector 450311  Network.dyn_peer[155]  lookupHopsSig:vector  ETV
vector 450310  Network.dyn_peer[155]  lookupTimeSig:vector  ETV
vector 450305  Network.dyn_peer[152]  lookupHopsSig:vector  ETV
vector 450304  Network.dyn_peer[152]  lookupTimeSig:vector  ETV
vector 450337  Network.dyn_peer[168]  lookupHopsSig:vector  ETV
vector 450336  Network.dyn_peer[168]  lookupTimeSig:vector  ETV
vector 450319  Network.dyn_peer[159]  lookupHopsSig:vector  ETV
vector 450318  Network.dyn_peer[159]  lookupTimeSig:vector  ETV
vector 450329  Network.dyn_peer[164]  lookupHopsSig:vector  ETV
vector 450328  Network.dyn_peer[164]  lookupTimeSig:vector  ETV
vector 450315  Network.dyn_peer[157]  lookupHopsSig:vector  ETV
vector 450314  Network.dyn_peer[157]  lookupTimeSig:vector  ETV
vector 450321  Network.dyn_peer[160]  lookupHopsSig:vector  ETV
vector 450320  Network.dyn_peer[160]  lookupTimeSig:vector  ETV
vector 450335  Network.dyn_peer[167]  lookupHopsSig:vector  ETV
vector 450334  Network.dyn_peer[167]  lookupTimeSig:vector  ETV
vector 450345  Network.dyn_peer[172]  lookupHopsSig:vector  ETV
vector 450344  Network.dyn_peer[172]  lookupTimeSig:vector  ETV
vector 450339  Network.dyn_peer[169]  lookupHopsSig:vector  ETV
vector 450338  Network.dyn_peer[169]  lookupTimeSig:vector  ETV
vector 450317  Network.dyn_peer[158]  lookupHopsSig:vector  ETV
vector 450316  Network.dyn_peer[158]  lookupTimeSig:vector  ETV
vector 450343  Network.dyn_peer[171]  lookupHopsSig:vector  ETV
vector 450342  Network.dyn_peer[171]  lookupTimeSig:vector  ETV
vector 450347  Network.dyn_peer[173]  lookupHopsSig:vector  ETV
vector 450346  Network.dyn_peer[173]  lookupTimeSig:vector  ETV
vector 450353  Network.dyn_peer[176]  lookupHopsSig:vector  ETV
vector 450352  Network.dyn_peer[176]  lookupTimeSig:vector  ETV
vector 450357  Network.dyn_peer[178]  lookupHopsSig:vector  ETV
vector 450356  Network.dyn_peer[178]  lookupTimeSig:vector  ETV
vector 450333  Network.dyn_peer[166]  lookupHopsSig:vector  ETV
vector 450332  Network.dyn_peer[166]  lookupTimeSig:vector  ETV
vector 450331  Network.dyn_peer[165]  lookupHopsSig:vector  ETV
vector 450330  Network.dyn_peer[165]  lookupTimeSig:vector  ETV
vector 450323  Network.dyn_peer[161]  lookupHopsSig:vector  ETV
vector 450322  Network.dyn_peer[161]  lookupTimeSig:vector  ETV
vector 450341  Network.dyn_peer[170]  lookupHopsSig:vector  ETV
vector 450340  Network.dyn_peer[170]  lookupTimeSig:vector  ETV
vector 450363  Network.dyn_peer[181]  lookupHopsSig:vector  ETV
vector 450362  Network.dyn_peer[181]  lookupTimeSig:vector  ETV
vector 450349  Network.dyn_peer[174]  lookupHopsSig:vector  ETV
vector 450348  Network.dyn_peer[174]  lookupTimeSig:vector  ETV
vector 450359  Network.dyn_peer[179]  lookupHopsSig:vector  ETV
vector 450358  Network.dyn_peer[179]  lookupTimeSig:vector  ETV
vector 450375  Network.dyn_peer[187]  lookupHopsSig:vector  ETV
vector 450374  Network.dyn_peer[187]  lookupTimeSig:vector  ETV
vector 450325  Network.dyn_peer[162]  lookupHopsSig:vector  ETV
vector 450324  Network.dyn_peer[162]  lookupTimeSig:vector  ETV
vector 450351  Network.dyn_peer[175]  lookupHopsSig:vector  ETV
vector 450350  Network.dyn_peer[175]  lookupTimeSig:vector  ETV
vector 450383  Network.dyn_peer[191]  lookupHopsSig:vector  ETV
vector 450382  Network.dyn_peer[191]  lookupTimeSig:vector  ETV
vector 450365  Network.dyn_peer[182]  lookupHopsSig:vector  ETV
vector 450364  Network.dyn_peer[182]  lookupTimeSig:vector  ETV
vector 450327  Network.dyn_peer[163]  lookupHopsSig:vector  ETV
vector 450326  Network.dyn_peer[163]  lookupTimeSig:vector  ETV
vector 450385  Network.dyn_peer[192]  lookupHopsSig:vector  ETV
vector 450384  Network.dyn_peer[192]  lookupTimeSig:vector  ETV
vector 450367  Network.dyn_peer[183]  lookupHopsSig:vector  ETV
vector 450366  Network.dyn_peer[183]  lookupTimeSig:vector  ETV
vector 450355  Network.dyn_peer[177]  lookupHopsSig:vector  ETV
vector 450354  Network.dyn_peer[177]  lookupTimeSig:vector  ETV
vector 450373  Network.dyn_peer[186]  lookupHopsSig:vector  ETV
vector 450372  Network.dyn_peer[186]  lookupTimeSig:vector  ETV
vector 450379  Network.dyn_peer[189]  lookupHopsSig:vector  ETV
vector 450378  Network.dyn_peer[189]  lookupTimeSig:vector  ETV
vector 450395  Network.dyn_peer[197]  lookupHopsSig:vector  ETV
vector 450394  Network.dyn_peer[197]  lookupTimeSig:vector  ETV
vector 450389  Network.dyn_peer[194]  lookupHopsSig:vector  ETV
vector 450388  Network.dyn_peer[194]  lookupTimeSig:vector  ETV
vector 450399  Network.dyn_peer[199]  lookupHopsSig:vector  ETV
vector 450398  Network.dyn_peer[199]  lookupTimeSig:vector  ETV
vector 450361  Network.dyn_peer[180]  lookupHopsSig:vector  ETV
vector 450360  Network.dyn_peer[180]  lookupTimeSig:vector  ETV
vector 450391  Network.dyn_peer[195]  lookupHopsSig:vector  ETV
vector 450390  Network.dyn_peer[195]  lookupTimeSig:vector  ETV
vector 450369  Network.dyn_peer[184]  lookupHopsSig:vector  ETV
vector 450368  Network.dyn_peer[184]  lookupTimeSig:vector  ETV
vector 450387  Network.dyn_peer[193]  lookupHopsSig:vector  ETV
vector 450386  Network.dyn_peer[193]  lookupTimeSig:vector  ETV
vector 450381  Network.dyn_peer[190]  lookupHopsSig:vector  ETV
vector 450380  Network.dyn_peer[190]  lookupTimeSig:vector  ETV
vector 450405  Network.dyn_peer[202]  lookupHopsSig:vector  ETV
vector 450404  Network.dyn_peer[202]  lookupTimeSig:vector  ETV
vector 450411  Network.dyn_peer[205]  lookupHopsSig:vector  ETV
vector 450410  Network.dyn_peer[205]  lookupTimeSig:vector  ETV
vector 450377  Network.dyn_peer[188]  lookupHopsSig:vector  ETV
vector 450376  Network.dyn_peer[188]  lookupTimeSig:vector  ETV
vector 450397  Network.dyn_peer[198]  lookupHopsSig:vector  ETV
vector 450396  Network.dyn_peer[198]  lookupTimeSig:vector  ETV
vector 450403  Network.dyn_peer[201]  lookupHopsSig:vector  ETV
vector 450402  Network.dyn_peer[201]  lookupTimeSig:vector  ETV
vector 450421  Network.dyn_peer[210]  lookupHopsSig:vector  ETV
vector 450420  Network.dyn_peer[210]  lookupTimeSig:vector  ETV
vector 450371  Network.dyn_peer[185]  lookupHopsSig:vector  ETV
vector 450370  Network.dyn_peer[185]  lookupTimeSig:vector  ETV
vector 450407  Network.dyn_peer[203]  lookupHopsSig:vector  ETV
vector 450406  Network.dyn_peer[203]  lookupTimeSig:vector  ETV
vector 450409  Network.dyn_peer[204]  lookupHopsSig:vector  ETV
vector 450408  Network.dyn_peer[204]  lookupTimeSig:vector  ETV
vector 450393  Network.dyn_peer[196]  lookupHopsSig:vector  ETV
vector 450392  Network.dyn_peer[196]  lookupTimeSig:vector  ETV
vector 450413  Network.dyn_peer[206]  lookupHopsSig:vector  ETV
vector 450412  Network.dyn_peer[206]  lookupTimeSig:vector  ETV
vector 450417  Network.dyn_peer[208]  lookupHopsSig:vector  ETV
vector 450416  Network.dyn_peer[208]  lookupTimeSig:vector  ETV
vector 450425  Network.dyn_peer[212]  lookupHopsSig:vector  ETV
vector 450424  Network.dyn_peer[212]  lookupTimeSig:vector  ETV
vector 450443  Network.dyn_peer[221]  lookupHopsSig:vector  ETV
vector 450442  Network.dyn_peer[221]  lookupTimeSig:vector  ETV
vector 450431  Network.dyn_peer[215]  lookupHopsSig:vector  ETV
vector 450430  Network.dyn_peer[215]  lookupTimeSig:vector  ETV
vector 450439  Network.dyn_peer[219]  lookupHopsSig:vector  ETV
vector 450438  Network.dyn_peer[219]  lookupTimeSig:vector  ETV
vector 450427  Network.dyn_peer[213]  lookupHopsSig:vector  ETV
vector 450426  Network.dyn_peer[213]  lookupTimeSig:vector  ETV
vector 450445  Network.dyn_peer[222]  lookupHopsSig:vector  ETV
vector 450444  Network.dyn_peer[222]  lookupTimeSig:vector  ETV
vector 450401  Network.dyn_peer[200]  lookupHopsSig:vector  ETV
vector 450400  Network.dyn_peer[200]  lookupTimeSig:vector  ETV
vector 450437  Network.dyn_peer[218]  lookupHopsSig:vector  ETV
vector 450436  Network.dyn_peer[218]  lookupTimeSig:vector  ETV
vector 450453  Network.dyn_peer[226]  lookupHopsSig:vector  ETV
vector 450452  Network.dyn_peer[226]  lookupTimeSig:vector  ETV
vector 450415  Network.dyn_peer[207]  lookupHopsSig:vector  ETV
vector 450414  Network.dyn_peer[207]  lookupTimeSig:vector  ETV
vector 450463  Network.dyn_peer[231]  lookupHopsSig:vector  ETV
vector 450462  Network.dyn_peer[231]  lookupTimeSig:vector  ETV
vector 450423  Network.dyn_peer[211]  lookupHopsSig:vector  ETV
vector 450422  Network.dyn_peer[211]  lookupTimeSig:vector  ETV
vector 450441  Network.dyn_peer[220]  lookupHopsSig:vector  ETV
vector 450440  Network.dyn_peer[220]  lookupTimeSig:vector  ETV
vector 450455  Network.dyn_peer[227]  lookupHopsSig:vector  ETV
vector 450454  Network.dyn_peer[227]  lookupTimeSig:vector  ETV
vector 450435  Network.dyn_peer[217]  lookupHopsSig:vector  ETV
vector 450434  Network.dyn_peer[217]  lookupTimeSig:vector  ETV
vector 450471  Network.dyn_peer[235]  lookupHopsSig:vector  ETV
vector 450470  Network.dyn_peer[235]  lookupTimeSig:vector  ETV
vector 450419  Network.dyn_peer[209]  lookupHopsSig:vector  ETV
vector 450418  Network.dyn_peer[209]  lookupTimeSig:vector  ETV
vector 450447  Network.dyn_peer[223]  lookupHopsSig:vector  ETV
vector 450446  Network.dyn_peer[223]  lookupTimeSig:vector  ETV
vector 450467  Network.dyn_peer[233]  lookupHopsSig:vector  ETV
vector 450466  Network.dyn_peer[233]  lookupTimeSig:vector  ETV
vector 450457  Network.dyn_peer[228]  lookupHopsSig:vector  ETV
vector 450456  Network.dyn_peer[228]  lookupTimeSig:vector  ETV
vector 450473  Network.dyn_peer[236]  lookupHopsSig:vector  ETV
vector 450472  Network.dyn_peer[236]  lookupTimeSig:vector  ETV
vector 450433  Network.dyn_peer[216]  lookupHopsSig:vector  ETV
vector 450432  Network.dyn_peer[216]  lookupTimeSig:vector  ETV
vector 450459  Network.dyn_peer[229]  lookupHopsSig:vector  ETV
vector 450458  Network.dyn_peer[229]  lookupTimeSig:vector  ETV
vector 450449  Network.dyn_peer[224]  lookupHopsSig:vector  ETV
vector 450448  Network.dyn_peer[224]  lookupTimeSig:vector  ETV
vector 450451  Network.dyn_peer[225]  lookupHopsSig:vector  ETV