file 639860 1369169113                                          
version 2
run Stability-254-20130521-22:45:10-23591
attr configname Stability
attr datetime 20130521-22:45:10
attr experiment Stability
attr inifile omnetpp.ini
attr iterationvars $0=0.03125
attr iterationvars2 "$0=0.03125, $repetition=14"
attr measurement $0=0.03125
attr network Network
attr processid 23591
attr repetition 14
attr replication #14
attr resultdir results
attr runnumber 254
attr seedset 254

vector 508001  Network.dyn_peer[0]  lookupHopsSig:vector  ETV
vector 508000  Network.dyn_peer[0]  lookupTimeSig:vector  ETV
vector 508005  Network.dyn_peer[2]  lookupHopsSig:vector  ETV
vector 508004  Network.dyn_peer[2]  lookupTimeSig:vector  ETV
vector 508011  Network.dyn_peer[5]  lookupHopsSig:vector  ETV
vector 508010  Network.dyn_peer[5]  lookupTimeSig:vector  ETV
vector 508003  Network.dyn_peer[1]  lookupHopsSig:vector  ETV
vector 508002  Network.dyn_peer[1]  lookupTimeSig:vector  ETV
vector 508025  Network.dyn_peer[12]  lookupHopsSig:vector  ETV
vector 508024  Network.dyn_peer[12]  lookupTimeSig:vector  ETV
vector 508007  Network.dyn_peer[3]  lookupHopsSig:vector  ETV
vector 508006  Network.dyn_peer[3]  lookupTimeSig:vector  ETV
vector 508021  Network.dyn_peer[10]  lookupHopsSig:vector  ETV
vector 508020  Network.dyn_peer[10]  lookupTimeSig:vector  ETV
vector 508015  Network.dyn_peer[7]  lookupHopsSig:vector  ETV
vector 508014  Network.dyn_peer[7]  lookupTimeSig:vector  ETV
vector 508023  Network.dyn_peer[11]  lookupHopsSig:vector  ETV
vector 508022  Network.dyn_peer[11]  lookupTimeSig:vector  ETV
vector 508013  Network.dyn_peer[6]  lookupHopsSig:vector  ETV
vector 508012  Network.dyn_peer[6]  lookupTimeSig:vector  ETV
vector 508009  Network.dyn_peer[4]  lookupHopsSig:vector  ETV
vector 508008  Network.dyn_peer[4]  lookupTimeSig:vector  ETV
vector 508031  Network.dyn_peer[15]  lookupHopsSig:vector  ETV
vector 508030  Network.dyn_peer[15]  lookupTimeSig:vector  ETV
vector 508019  Network.dyn_peer[9]  lookupHopsSig:vector  ETV
vector 508018  Network.dyn_peer[9]  lookupTimeSig:vector  ETV
vector 508051  Network.dyn_peer[25]  lookupHopsSig:vector  ETV
vector 508050  Network.dyn_peer[25]  lookupTimeSig:vector  ETV
vector 508039  Network.dyn_peer[19]  lookupHopsSig:vector  ETV
vector 508038  Network.dyn_peer[19]  lookupTimeSig:vector  ETV
vector 508035  Network.dyn_peer[17]  lookupHopsSig:vector  ETV
vector 508034  Network.dyn_peer[17]  lookupTimeSig:vector  ETV
vector 508041  Network.dyn_peer[20]  lookupHopsSig:vector  ETV
vector 508040  Network.dyn_peer[20]  lookupTimeSig:vector  ETV
vector 508029  Network.dyn_peer[14]  lookupHopsSig:vector  ETV
vector 508028  Network.dyn_peer[14]  lookupTimeSig:vector  ETV
vector 508055  Network.dyn_peer[27]  lookupHopsSig:vector  ETV
vector 508054  Network.dyn_peer[27]  lookupTimeSig:vector  ETV
vector 508037  Network.dyn_peer[18]  lookupHopsSig:vector  ETV
vector 508036  Network.dyn_peer[18]  lookupTimeSig:vector  ETV
vector 508045  Network.dyn_peer[22]  lookupHopsSig:vector  ETV
vector 508044  Network.dyn_peer[22]  lookupTimeSig:vector  ETV
vector 508017  Network.dyn_peer[8]  lookupHopsSig:vector  ETV
vector 508016  Network.dyn_peer[8]  lookupTimeSig:vector  ETV
vector 508049  Network.dyn_peer[24]  lookupHopsSig:vector  ETV
vector 508048  Network.dyn_peer[24]  lookupTimeSig:vector  ETV
vector 508043  Network.dyn_peer[21]  lookupHopsSig:vector  ETV
vector 508042  Network.dyn_peer[21]  lookupTimeSig:vector  ETV
vector 508069  Network.dyn_peer[34]  lookupHopsSig:vector  ETV
vector 508068  Network.dyn_peer[34]  lookupTimeSig:vector  ETV
vector 508027  Network.dyn_peer[13]  lookupHopsSig:vector  ETV
vector 508026  Network.dyn_peer[13]  lookupTimeSig:vector  ETV
vector 508067  Network.dyn_peer[33]  lookupHopsSig:vector  ETV
vector 508066  Network.dyn_peer[33]  lookupTimeSig:vector  ETV
vector 508057  Network.dyn_peer[28]  lookupHopsSig:vector  ETV
vector 508056  Network.dyn_peer[28]  lookupTimeSig:vector  ETV
vector 508059  Network.dyn_peer[29]  lookupHopsSig:vector  ETV
vector 508058  Network.dyn_peer[29]  lookupTimeSig:vector  ETV
vector 508047  Network.dyn_peer[23]  lookupHopsSig:vector  ETV
vector 508046  Network.dyn_peer[23]  lookupTimeSig:vector  ETV
vector 508061  Network.dyn_peer[30]  lookupHopsSig:vector  ETV
vector 508060  Network.dyn_peer[30]  lookupTimeSig:vector  ETV
vector 508075  Network.dyn_peer[37]  lookupHopsSig:vector  ETV
vector 508074  Network.dyn_peer[37]  lookupTimeSig:vector  ETV
vector 508053  Network.dyn_peer[26]  lookupHopsSig:vector  ETV
vector 508052  Network.dyn_peer[26]  lookupTimeSig:vector  ETV
vector 508081  Network.dyn_peer[40]  lookupHopsSig:vector  ETV
vector 508080  Network.dyn_peer[40]  lookupTimeSig:vector  ETV
vector 508033  Network.dyn_peer[16]  lookupHopsSig:vector  ETV
vector 508032  Network.dyn_peer[16]  lookupTimeSig:vector  ETV
vector 508065  Network.dyn_peer[32]  lookupHopsSig:vector  ETV
vector 508064  Network.dyn_peer[32]  lookupTimeSig:vector  ETV
vector 508087  Network.dyn_peer[43]  lookupHopsSig:vector  ETV
vector 508086  Network.dyn_peer[43]  lookupTimeSig:vector  ETV
vector 508077  Network.dyn_peer[38]  lookupHopsSig:vector  ETV
vector 508076  Network.dyn_peer[38]  lookupTimeSig:vector  ETV
vector 508085  Network.dyn_peer[42]  lookupHopsSig:vector  ETV
vector 508084  Network.dyn_peer[42]  lookupTimeSig:vector  ETV
vector 508099  Network.dyn_peer[49]  lookupHopsSig:vector  ETV
vector 508098  Network.dyn_peer[49]  lookupTimeSig:vector  ETV
vector 508063  Network.dyn_peer[31]  lookupHopsSig:vector  ETV
vector 508062  Network.dyn_peer[31]  lookupTimeSig:vector  ETV
vector 508095  Network.dyn_peer[47]  lookupHopsSig:vector  ETV
vector 508094  Network.dyn_peer[47]  lookupTimeSig:vector  ETV
vector 508083  Network.dyn_peer[41]  lookupHopsSig:vector  ETV
vector 508082  Network.dyn_peer[41]  lookupTimeSig:vector  ETV
vector 508079  Network.dyn_peer[39]  lookupHopsSig:vector  ETV
vector 508078  Network.dyn_peer[39]  lookupTimeSig:vector  ETV
vector 508093  Network.dyn_peer[46]  lookupHopsSig:vector  ETV
vector 508092  Network.dyn_peer[46]  lookupTimeSig:vector  ETV
vector 508071  Network.dyn_peer[35]  lookupHopsSig:vector  ETV
vector 508070  Network.dyn_peer[35]  lookupTimeSig:vector  ETV
vector 508073  Network.dyn_peer[36]  lookupHopsSig:vector  ETV
vector 508072  Network.dyn_peer[36]  lookupTimeSig:vector  ETV
vector 508089  Network.dyn_peer[44]  lookupHopsSig:vector  ETV
vector 508088  Network.dyn_peer[44]  lookupTimeSig:vector  ETV
vector 508105  Network.dyn_peer[52]  lookupHopsSig:vector  ETV
vector 508104  Network.dyn_peer[52]  lookupTimeSig:vector  ETV
vector 508121  Network.dyn_peer[60]  lookupHopsSig:vector  ETV
vector 508120  Network.dyn_peer[60]  lookupTimeSig:vector  ETV
vector 508103  Network.dyn_peer[51]  lookupHopsSig:vector  ETV
vector 508102  Network.dyn_peer[51]  lookupTimeSig:vector  ETV
vector 508133  Network.dyn_peer[66]  lookupHopsSig:vector  ETV
vector 508132  Network.dyn_peer[66]  lookupTimeSig:vector  ETV
vector 508097  Network.dyn_peer[48]  lookupHopsSig:vector  ETV
vector 508096  Network.dyn_peer[48]  lookupTimeSig:vector  ETV
vector 508091  Network.dyn_peer[45]  lookupHopsSig:vector  ETV
vector 508090  Network.dyn_peer[45]  lookupTimeSig:vector  ETV
vector 508111  Network.dyn_peer[55]  lookupHopsSig:vector  ETV
vector 508110  Network.dyn_peer[55]  lookupTimeSig:vector  ETV
vector 508107  Network.dyn_peer[53]  lookupHopsSig:vector  ETV
vector 508106  Network.dyn_peer[53]  lookupTimeSig:vector  ETV
vector 508101  Network.dyn_peer[50]  lookupHopsSig:vector  ETV
vector 508100  Network.dyn_peer[50]  lookupTimeSig:vector  ETV
vector 508127  Network.dyn_peer[63]  lookupHopsSig:vector  ETV
vector 508126  Network.dyn_peer[63]  lookupTimeSig:vector  ETV
vector 508129  Network.dyn_peer[64]  lookupHopsSig:vector  ETV
vector 508128  Network.dyn_peer[64]  lookupTimeSig:vector  ETV
vector 508123  Network.dyn_peer[61]  lookupHopsSig:vector  ETV
vector 508122  Network.dyn_peer[61]  lookupTimeSig:vector  ETV
vector 508119  Network.dyn_peer[59]  lookupHopsSig:vector  ETV
vector 508118  Network.dyn_peer[59]  lookupTimeSig:vector  ETV
vector 508115  Network.dyn_peer[57]  lookupHopsSig:vector  ETV
vector 508114  Network.dyn_peer[57]  lookupTimeSig:vector  ETV
vector 508147  Network.dyn_peer[73]  lookupHopsSig:vector  ETV
vector 508146  Network.dyn_peer[73]  lookupTimeSig:vector  ETV
vector 508141  Network.dyn_peer[70]  lookupHopsSig:vector  ETV
vector 508140  Network.dyn_peer[70]  lookupTimeSig:vector  ETV
vector 508117  Network.dyn_peer[58]  lookupHopsSig:vector  ETV
vector 508116  Network.dyn_peer[58]  lookupTimeSig:vector  ETV
vector 508131  Network.dyn_peer[65]  lookupHopsSig:vector  ETV
vector 508130  Network.dyn_peer[65]  lookupTimeSig:vector  ETV
vector 508125  Network.dyn_peer[62]  lookupHopsSig:vector  ETV
vector 508124  Network.dyn_peer[62]  lookupTimeSig:vector  ETV
vector 508135  Network.dyn_peer[67]  lookupHopsSig:vector  ETV
vector 508134  Network.dyn_peer[67]  lookupTimeSig:vector  ETV
vector 508137  Network.dyn_peer[68]  lookupHopsSig:vector  ETV
vector 508136  Network.dyn_peer[68]  lookupTimeSig:vector  ETV
vector 508145  Network.dyn_peer[72]  lookupHopsSig:vector  ETV
vector 508144  Network.dyn_peer[72]  lookupTimeSig:vector  ETV
vector 508139  Network.dyn_peer[69]  lookupHopsSig:vector  ETV
vector 508138  Network.dyn_peer[69]  lookupTimeSig:vector  ETV
vector 508113  Network.dyn_peer[56]  lookupHopsSig:vector  ETV
vector 508112  Network.dyn_peer[56]  lookupTimeSig:vector  ETV
vector 508109  Network.dyn_peer[54]  lookupHopsSig:vector  ETV
vector 508108  Network.dyn_peer[54]  lookupTimeSig:vector  ETV
vector 508155  Network.dyn_peer[77]  lookupHopsSig:vector  ETV
vector 508154  Network.dyn_peer[77]  lookupTimeSig:vector  ETV
vector 508161  Network.dyn_peer[80]  lookupHopsSig:vector  ETV
vector 508160  Network.dyn_peer[80]  lookupTimeSig:vector  ETV
vector 508169  Network.dyn_peer[84]  lookupHopsSig:vector  ETV
vector 508168  Network.dyn_peer[84]  lookupTimeSig:vector  ETV
vector 508157  Network.dyn_peer[78]  lookupHopsSig:vector  ETV
vector 508156  Network.dyn_peer[78]  lookupTimeSig:vector  ETV
vector 508151  Network.dyn_peer[75]  lookupHopsSig:vector  ETV
vector 508150  Network.dyn_peer[75]  lookupTimeSig:vector  ETV
vector 508159  Network.dyn_peer[79]  lookupHopsSig:vector  ETV
vector 508158  Network.dyn_peer[79]  lookupTimeSig:vector  ETV
vector 508179  Network.dyn_peer[89]  lookupHopsSig:vector  ETV
vector 508178  Network.dyn_peer[89]  lookupTimeSig:vector  ETV
vector 508149  Network.dyn_peer[74]  lookupHopsSig:vector  ETV
vector 508148  Network.dyn_peer[74]  lookupTimeSig:vector  ETV
vector 508189  Network.dyn_peer[94]  lookupHopsSig:vector  ETV
vector 508188  Network.dyn_peer[94]  lookupTimeSig:vector  ETV
vector 508171  Network.dyn_peer[85]  lookupHopsSig:vector  ETV
vector 508170  Network.dyn_peer[85]  lookupTimeSig:vector  ETV
vector 508187  Network.dyn_peer[93]  lookupHopsSig:vector  ETV
vector 508186  Network.dyn_peer[93]  lookupTimeSig:vector  ETV
vector 508143  Network.dyn_peer[71]  lookupHopsSig:vector  ETV
vector 508142  Network.dyn_peer[71]  lookupTimeSig:vector  ETV
vector 508177  Network.dyn_peer[88]  lookupHopsSig:vector  ETV
vector 508176  Network.dyn_peer[88]  lookupTimeSig:vector  ETV
vector 508165  Network.dyn_peer[82]  lookupHopsSig:vector  ETV
vector 508164  Network.dyn_peer[82]  lookupTimeSig:vector  ETV
vector 508167  Network.dyn_peer[83]  lookupHopsSig:vector  ETV
vector 508166  Network.dyn_peer[83]  lookupTimeSig:vector  ETV
vector 508211  Network.dyn_peer[105]  lookupHopsSig:vector  ETV
vector 508210  Network.dyn_peer[105]  lookupTimeSig:vector  ETV
vector 508175  Network.dyn_peer[87]  lookupHopsSig:vector  ETV
vector 508174  Network.dyn_peer[87]  lookupTimeSig:vector  ETV
vector 508193  Network.dyn_peer[96]  lookupHopsSig:vector  ETV
vector 508192  Network.dyn_peer[96]  lookupTimeSig:vector  ETV
vector 508215  Network.dyn_peer[107]  lookupHopsSig:vector  ETV
vector 508214  Network.dyn_peer[107]  lookupTimeSig:vector  ETV
vector 508163  Network.dyn_peer[81]  lookupHopsSig:vector  ETV
vector 508162  Network.dyn_peer[81]  lookupTimeSig:vector  ETV
vector 508153  Network.dyn_peer[76]  lookupHopsSig:vector  ETV
vector 508152  Network.dyn_peer[76]  lookupTimeSig:vector  ETV
vector 508185  Network.dyn_peer[92]  lookupHopsSig:vector  ETV
vector 508184  Network.dyn_peer[92]  lookupTimeSig:vector  ETV
vector 508227  Network.dyn_peer[113]  lookupHopsSig:vector  ETV
vector 508226  Network.dyn_peer[113]  lookupTimeSig:vector  ETV
vector 508217  Network.dyn_peer[108]  lookupHopsSig:vector  ETV
vector 508216  Network.dyn_peer[108]  lookupTimeSig:vector  ETV
vector 508173  Network.dyn_peer[86]  lookupHopsSig:vector  ETV
vector 508172  Network.dyn_peer[86]  lookupTimeSig:vector  ETV
vector 508201  Network.dyn_peer[100]  lookupHopsSig:vector  ETV
vector 508200  Network.dyn_peer[100]  lookupTimeSig:vector  ETV
vector 508195  Network.dyn_peer[97]  lookupHopsSig:vector  ETV
vector 508194  Network.dyn_peer[97]  lookupTimeSig:vector  ETV
vector 508205  Network.dyn_peer[102]  lookupHopsSig:vector  ETV
vector 508204  Network.dyn_peer[102]  lookupTimeSig:vector  ETV
vector 508225  Network.dyn_peer[112]  lookupHopsSig:vector  ETV
vector 508224  Network.dyn_peer[112]  lookupTimeSig:vector  ETV
vector 508181  Network.dyn_peer[90]  lookupHopsSig:vector  ETV
vector 508180  Network.dyn_peer[90]  lookupTimeSig:vector  ETV
vector 508213  Network.dyn_peer[106]  lookupHopsSig:vector  ETV
vector 508212  Network.dyn_peer[106]  lookupTimeSig:vector  ETV
vector 508203  Network.dyn_peer[101]  lookupHopsSig:vector  ETV
vector 508202  Network.dyn_peer[101]  lookupTimeSig:vector  ETV
vector 508197  Network.dyn_peer[98]  lookupHopsSig:vector  ETV
vector 508196  Network.dyn_peer[98]  lookupTimeSig:vector  ETV
vector 508243  Network.dyn_peer[121]  lookupHopsSig:vector  ETV
vector 508242  Network.dyn_peer[121]  lookupTimeSig:vector  ETV
vector 508239  Network.dyn_peer[119]  lookupHopsSig:vector  ETV
vector 508238  Network.dyn_peer[119]  lookupTimeSig:vector  ETV
vector 508261  Network.dyn_peer[130]  lookupHopsSig:vector  ETV
vector 508260  Network.dyn_peer[130]  lookupTimeSig:vector  ETV
vector 508237  Network.dyn_peer[118]  lookupHopsSig:vector  ETV
vector 508236  Network.dyn_peer[118]  lookupTimeSig:vector  ETV
vector 508263  Network.dyn_peer[131]  lookupHopsSig:vector  ETV
vector 508262  Network.dyn_peer[131]  lookupTimeSig:vector  ETV
vector 508219  Network.dyn_peer[109]  lookupHopsSig:vector  ETV
vector 508218  Network.dyn_peer[109]  lookupTimeSig:vector  ETV
vector 508233  Network.dyn_peer[116]  lookupHopsSig:vector  ETV
vector 508232  Network.dyn_peer[116]  lookupTimeSig:vector  ETV
vector 508183  Network.dyn_peer[91]  lookupHopsSig:vector  ETV
vector 508182  Network.dyn_peer[91]  lookupTimeSig:vector  ETV
vector 508235  Network.dyn_peer[117]  lookupHopsSig:vector  ETV
vector 508234  Network.dyn_peer[117]  lookupTimeSig:vector  ETV
vector 508259  Network.dyn_peer[129]  lookupHopsSig:vector  ETV
vector 508258  Network.dyn_peer[129]  lookupTimeSig:vector  ETV
vector 508209  Network.dyn_peer[104]  lookupHopsSig:vector  ETV
vector 508208  Network.dyn_peer[104]  lookupTimeSig:vector  ETV
vector 508191  Network.dyn_peer[95]  lookupHopsSig:vector  ETV
vector 508190  Network.dyn_peer[95]  lookupTimeSig:vector  ETV
vector 508199  Network.dyn_peer[99]  lookupHopsSig:vector  ETV
vector 508198  Network.dyn_peer[99]  lookupTimeSig:vector  ETV
vector 508257  Network.dyn_peer[128]  lookupHopsSig:vector  ETV
vector 508256  Network.dyn_peer[128]  lookupTimeSig:vector  ETV
vector 508207  Network.dyn_peer[103]  lookupHopsSig:vector  ETV
vector 508206  Network.dyn_peer[103]  lookupTimeSig:vector  ETV
vector 508267  Network.dyn_peer[133]  lookupHopsSig:vector  ETV
vector 508266  Network.dyn_peer[133]  lookupTimeSig:vector  ETV
vector 508249  Network.dyn_peer[124]  lookupHopsSig:vector  ETV
vector 508248  Network.dyn_peer[124]  lookupTimeSig:vector  ETV
vector 508275  Network.dyn_peer[137]  lookupHopsSig:vector  ETV
vector 508274  Network.dyn_peer[137]  lookupTimeSig:vector  ETV
vector 508245  Network.dyn_peer[122]  lookupHopsSig:vector  ETV
vector 508244  Network.dyn_peer[122]  lookupTimeSig:vector  ETV
vector 508221  Network.dyn_peer[110]  lookupHopsSig:vector  ETV
vector 508220  Network.dyn_peer[110]  lookupTimeSig:vector  ETV
vector 508223  Network.dyn_peer[111]  lookupHopsSig:vector  ETV
vector 508222  Network.dyn_peer[111]  lookupTimeSig:vector  ETV
vector 508281  Network.dyn_peer[140]  lookupHopsSig:vector  ETV
vector 508280  Network.dyn_peer[140]  lookupTimeSig:vector  ETV
vector 508231  Network.dyn_peer[115]  lookupHopsSig:vector  ETV
vector 508230  Network.dyn_peer[115]  lookupTimeSig:vector  ETV
vector 508251  Network.dyn_peer[125]  lookupHopsSig:vector  ETV
vector 508250  Network.dyn_peer[125]  lookupTimeSig:vector  ETV
vector 508291  Network.dyn_peer[145]  lookupHopsSig:vector  ETV
vector 508290  Network.dyn_peer[145]  lookupTimeSig:vector  ETV
vector 508265  Network.dyn_peer[132]  lookupHopsSig:vector  ETV
vector 508264  Network.dyn_peer[132]  lookupTimeSig:vector  ETV
vector 508285  Network.dyn_peer[142]  lookupHopsSig:vector  ETV
vector 508284  Network.dyn_peer[142]  lookupTimeSig:vector  ETV
vector 508229  Network.dyn_peer[114]  lookupHopsSig:vector  ETV
vector 508228  Network.dyn_peer[114]  lookupTimeSig:vector  ETV
vector 508255  Network.dyn_peer[127]  lookupHopsSig:vector  ETV
vector 508254  Network.dyn_peer[127]  lookupTimeSig:vector  ETV
vector 508313  Network.dyn_peer[156]  lookupHopsSig:vector  ETV
vector 508312  Network.dyn_peer[156]  lookupTimeSig:vector  ETV
vector 508271  Network.dyn_peer[135]  lookupHopsSig:vector  ETV
vector 508270  Network.dyn_peer[135]  lookupTimeSig:vector  ETV
vector 508247  Network.dyn_peer[123]  lookupHopsSig:vector  ETV
vector 508246  Network.dyn_peer[123]  lookupTimeSig:vector  ETV
vector 508277  Network.dyn_peer[138]  lookupHopsSig:vector  ETV
vector 508276  Network.dyn_peer[138]  lookupTimeSig:vector  ETV
vector 508297  Network.dyn_peer[148]  lookupHopsSig:vector  ETV
vector 508296  Network.dyn_peer[148]  lookupTimeSig:vector  ETV
vector 508299  Network.dyn_peer[149]  lookupHopsSig:vector  ETV
vector 508298  Network.dyn_peer[149]  lookupTimeSig:vector  ETV
vector 508301  Network.dyn_peer[150]  lookupHopsSig:vector  ETV
vector 508300  Network.dyn_peer[150]  lookupTimeSig:vector  ETV
vector 508289  Network.dyn_peer[144]  lookupHopsSig:vector  ETV
vector 508288  Network.dyn_peer[144]  lookupTimeSig:vector  ETV
vector 508287  Network.dyn_peer[143]  lookupHopsSig:vector  ETV
vector 508286  Network.dyn_peer[143]  lookupTimeSig:vector  ETV
vector 508311  Network.dyn_peer[155]  lookupHopsSig:vector  ETV
vector 508310  Network.dyn_peer[155]  lookupTimeSig:vector  ETV
vector 508317  Network.dyn_peer[158]  lookupHopsSig:vector  ETV
vector 508316  Network.dyn_peer[158]  lookupTimeSig:vector  ETV
vector 508325  Network.dyn_peer[162]  lookupHopsSig:vector  ETV
vector 508324  Network.dyn_peer[162]  lookupTimeSig:vector  ETV
vector 508307  Network.dyn_peer[153]  lookupHopsSig:vector  ETV
vector 508306  Network.dyn_peer[153]  lookupTimeSig:vector  ETV
vector 508333  Network.dyn_peer[166]  lookupHopsSig:vector  ETV
vector 508332  Network.dyn_peer[166]  lookupTimeSig:vector  ETV
vector 508309  Network.dyn_peer[154]  lookupHopsSig:vector  ETV
vector 508308  Network.dyn_peer[154]  lookupTimeSig:vector  ETV
vector 508329  Network.dyn_peer[164]  lookupHopsSig:vector  ETV
vector 508328  Network.dyn_peer[164]  lookupTimeSig:vector  ETV
vector 508241  Network.dyn_peer[120]  lookupHopsSig:vector  ETV
vector 508240  Network.dyn_peer[120]  lookupTimeSig:vector  ETV
vector 508293  Network.dyn_peer[146]  lookupHopsSig:vector  ETV
vector 508292  Network.dyn_peer[146]  lookupTimeSig:vector  ETV
vector 508269  Network.dyn_peer[134]  lookupHopsSig:vector  ETV
vector 508268  Network.dyn_peer[134]  lookupTimeSig:vector  ETV
vector 508273  Network.dyn_peer[136]  lookupHopsSig:vector  ETV
vector 508272  Network.dyn_peer[136]  lookupTimeSig:vector  ETV
vector 508321  Network.dyn_peer[160]  lookupHopsSig:vector  ETV
vector 508320  Network.dyn_peer[160]  lookupTimeSig:vector  ETV
vector 508279  Network.dyn_peer[139]  lookupHopsSig:vector  ETV
vector 508278  Network.dyn_peer[139]  lookupTimeSig:vector  ETV
vector 508337  Network.dyn_peer[168]  lookupHopsSig:vector  ETV
vector 508336  Network.dyn_peer[168]  lookupTimeSig:vector  ETV
vector 508331  Network.dyn_peer[165]  lookupHopsSig:vector  ETV
vector 508330  Network.dyn_peer[165]  lookupTimeSig:vector  ETV
vector 508339  Network.dyn_peer[169]  lookupHopsSig:vector  ETV
vector 508338  Network.dyn_peer[169]  lookupTimeSig:vector  ETV
vector 508335  Network.dyn_peer[167]  lookupHopsSig:vector  ETV
vector 508334  Network.dyn_peer[167]  lookupTimeSig:vector  ETV
vector 508355  Network.dyn_peer[177]  lookupHopsSig:vector  ETV
vector 508354  Network.dyn_peer[177]  lookupTimeSig:vector  ETV
vector 508351  Network.dyn_peer[175]  lookupHopsSig:vector  ETV
vector 508350  Network.dyn_peer[175]  lookupTimeSig:vector  ETV
vector 508295  Network.dyn_peer[147]  lookupHopsSig:vector  ETV
vector 508294  Network.dyn_peer[147]  lookupTimeSig:vector  ETV
vector 508327  Network.dyn_peer[163]  lookupHopsSig:vector  ETV
vector 508326  Network.dyn_peer[163]  lookupTimeSig:vector  ETV
vector 508367  Network.dyn_peer[183]  lookupHopsSig:vector  ETV
vector 508366  Network.dyn_peer[183]  lookupTimeSig:vector  ETV
vector 508253  Network.dyn_peer[126]  lookupHopsSig:vector  ETV
vector 508252  Network.dyn_peer[126]  lookupTimeSig:vector  ETV
vector 508305  Network.dyn_peer[152]  lookupHopsSig:vector  ETV
vector 508304  Network.dyn_peer[152]  lookupTimeSig:vector  ETV
vector 508359  Network.dyn_peer[179]  lookupHopsSig:vector  ETV
vector 508358  Network.dyn_peer[179]  lookupTimeSig:vector  ETV
vector 508303  Network.dyn_peer[151]  lookupHopsSig:vector  ETV
vector 508302  Network.dyn_peer[151]  lookupTimeSig:vector  ETV
vector 508319  Network.dyn_peer[159]  lookupHopsSig:vector  ETV
vector 508318  Network.dyn_peer[159]  lookupTimeSig:vector  ETV
vector 508363  Network.dyn_peer[181]  lookupHopsSig:vector  ETV
vector 508362  Network.dyn_peer[181]  lookupTimeSig:vector  ETV
vector 508353  Network.dyn_peer[176]  lookupHopsSig:vector  ETV
vector 508352  Network.dyn_peer[176]  lookupTimeSig:vector  ETV
vector 508283  Network.dyn_peer[141]  lookupHopsSig:vector  ETV
vector 508282  Network.dyn_peer[141]  lookupTimeSig:vector  ETV
vector 508393  Network.dyn_peer[196]  lookupHopsSig:vector  ETV
vector 508392  Network.dyn_peer[196]  lookupTimeSig:vector  ETV
vector 508391  Network.dyn_peer[195]  lookupHopsSig:vector  ETV
vector 508390  Network.dyn_peer[195]  lookupTimeSig:vector  ETV
vector 508407  Network.dyn_peer[203]  lookupHopsSig:vector  ETV
vector 508406  Network.dyn_peer[203]  lookupTimeSig:vector  ETV
vector 508315  Network.dyn_peer[157]  lookupHopsSig:vector  ETV
vector 508314  Network.dyn_peer[157]  lookupTimeSig:vector  ETV
vector 508409  Network.dyn_peer[204]  lookupHopsSig:vector  ETV
vector 508408  Network.dyn_peer[204]  lookupTimeSig:vector  ETV
vector 508379  Network.dyn_peer[189]  lookupHopsSig:vector  ETV
vector 508378  Network.dyn_peer[189]  lookupTimeSig:vector  ETV
vector 508399  Network.dyn_peer[199]  lookupHopsSig:vector  ETV
vector 508398  Network.dyn_peer[199]  lookupTimeSig:vector  ETV
vector 508377  Network.dyn_peer[188]  lookupHopsSig:vector  ETV
vector 508376  Network.dyn_peer[188]  lookupTimeSig:vector  ETV
vector 508371  Network.dyn_peer[185]  lookupHopsSig:vector  ETV
vector 508370  Network.dyn_peer[185]  lookupTimeSig:vector  ETV
vector 508343  Network.dyn_peer[171]  lookupHopsSig:vector  ETV
vector 508342  Network.dyn_peer[171]  lookupTimeSig:vector  ETV
vector 508347  Network.dyn_peer[173]  lookupHopsSig:vector  ETV
vector 508346  Network.dyn_peer[173]  lookupTimeSig:vector  ETV
vector 508387  Network.dyn_peer[193]  lookupHopsSig:vector  ETV
vector 508386  Network.dyn_peer[193]  lookupTimeSig:vector  ETV
vector 508365  Network.dyn_peer[182]  lookupHopsSig:vector  ETV
vector 508364  Network.dyn_peer[182]  lookupTimeSig:vector  ETV
vector 508411  Network.dyn_peer[205]  lookupHopsSig:vector  ETV
vector 508410  Network.dyn_peer[205]  lookupTimeSig:vector  ETV
vector 508433  Network.dyn_peer[216]  lookupHopsSig:vector  ETV
vector 508432  Network.dyn_peer[216]  lookupTimeSig:vector  ETV
vector 508415  Network.dyn_peer[207]  lookupHopsSig:vector  ETV
vector 508414  Network.dyn_peer[207]  lookupTimeSig:vector  ETV
vector 508443  Network.dyn_peer[221]  lookupHopsSig:vector  ETV
vector 508442  Network.dyn_peer[221]  lookupTimeSig:vector  ETV
vector 508419  Network.dyn_peer[209]  lookupHopsSig:vector  ETV
vector 508418  Network.dyn_peer[209]  lookupTimeSig:vector  ETV
vector 508375  Network.dyn_peer[187]  lookupHopsSig:vector  ETV
vector 508374  Network.dyn_peer[187]  lookupTimeSig:vector  ETV
vector 508385  Network.dyn_peer[192]  lookupHopsSig:vector  ETV
vector 508384  Network.dyn_peer[192]  lookupTimeSig:vector  ETV
vector 508373  Network.dyn_peer[186]  lookupHopsSig:vector  ETV
vector 508372  Network.dyn_peer[186]  lookupTimeSig:vector  ETV
vector 508455  Network.dyn_peer[227]  lookupHopsSig:vector  ETV
vector 508454  Network.dyn_peer[227]  lookupTimeSig:vector  ETV
vector 508323  Network.dyn_peer[161]  lookupHopsSig:vector  ETV
vector 508322  Network.dyn_peer[161]  lookupTimeSig:vector  ETV
vector 508381  Network.dyn_peer[190]  lookupHopsSig:vector  ETV
vector 508380  Network.dyn_peer[190]  lookupTimeSig:vector  ETV
vector 508395  Network.dyn_peer[197]  lookupHopsSig:vector  ETV
vector 508394  Network.dyn_peer[197]  lookupTimeSig:vector  ETV
vector 508453  Network.dyn_peer[226]  lookupHopsSig:vector  ETV
vector 508452  Network.dyn_peer[226]  lookupTimeSig:vector  ETV
vector 508341  Network.dyn_peer[170]  lookupHopsSig:vector  ETV
vector 508340  Network.dyn_peer[170]  lookupTimeSig:vector  ETV
vector 508389  Network.dyn_peer[194]  lookupHopsSig:vector  ETV
vector 508388  Network.dyn_peer[194]  lookupTimeSig:vector  ETV
vector 508421  Network.dyn_peer[210]  lookupHopsSig:vector  ETV
vector 508420  Network.dyn_peer[210]  lookupTimeSig:vector  ETV
vector 508383  Network.dyn_peer[191]  lookupHopsSig:vector  ETV
vector 508382  Network.dyn_peer[191]  lookupTimeSig:vector  ETV
vector 508475  Network.dyn_peer[237]  lookupHopsSig:vector  ETV
vector 508474  Network.dyn_peer[237]  lookupTimeSig:vector  ETV
vector 508463  Network.dyn_peer[231]  lookupHopsSig:vector  ETV
vector 508462  Network.dyn_peer[231]  lookupTimeSig:vector  ETV
vector 508361  Network.dyn_peer[180]  lookupHopsSig:vector  ETV
vector 508360  Network.dyn_peer[180]  lookupTimeSig:vector  ETV
vector 508425  Network.dyn_peer[212]  lookupHopsSig:vector  ETV
vector 508424  Network.dyn_peer[212]  lookupTimeSig:vector  ETV
vector 508401  Network.dyn_peer[200]  lookupHopsSig:vector  ETV
vector 508400  Network.dyn_peer[200]  lookupTimeSig:vector  ETV
vector 508469  Network.dyn_peer[234]  lookupHopsSig:vector  ETV
vector 508468  Network.dyn_peer[234]  lookupTimeSig:vector  ETV
vector 508369  Network.dyn_peer[184]  lookupHopsSig:vector  ETV
vector 508368  Network.dyn_peer[184]  lookupTimeSig:vector  ETV
vector 508449  Network.dyn_peer[224]  lookupHopsSig:vector  ETV
vector 508448  Network.dyn_peer[224]  lookupTimeSig:vector  ETV
vector 508431  Network.dyn_peer[215]  lookupHopsSig:vector  ETV
vector 508430  Network.dyn_peer[215]  lookupTimeSig:vector  ETV
vector 508457  Network.dyn_peer[228]  lookupHopsSig:vector  ETV
vector 508456  Network.dyn_peer[228]  lookupTimeSig:vector  ETV
vector 508349  Network.dyn_peer[174]  lookupHopsSig:vector  ETV
vector 508348  Network.dyn_peer[174]  lookupTimeSig:vector  ETV
vector 508445  Network.dyn_peer[222]  lookupHopsSig:vector  ETV
vector 508444  Network.dyn_peer[222]  lookupTimeSig:vector  ETV
vector 508427  Network.dyn_peer[213]  lookupHopsSig:vector  ETV
vector 508426  Network.dyn_peer[213]  lookupTimeSig:vector  ETV
vector 508441  Network.dyn_peer[220]  lookupHopsSig:vector  ETV
vector 508440  Network.dyn_peer[220]  lookupTimeSig:vector  ETV
vector 508461  Network.dyn_peer[230]  lookupHopsSig:vector  ETV
vector 508460  Network.dyn_peer[230]  lookupTimeSig:vector  ETV
vector 508437  Network.dyn_peer[218]  lookupHopsSig:vector  ETV
vector 508436  Network.dyn_peer[218]  lookupTimeSig:vector  ETV
vector 508357  Network.dyn_peer[178]  lookupHopsSig:vector  ETV
vector 508356  Network.dyn_peer[178]  lookupTimeSig:vector  ETV
vector 508447  Network.dyn_peer[223]  lookupHopsSig:vector  ETV
vector 508446  Network.dyn_peer[223]  lookupTimeSig:vector  ETV
vector 508345  Network.dyn_peer[172]  lookupHopsSig:vector  ETV
vector 508344  Network.dyn_peer[172]  lookupTimeSig:vector  ETV
vector 508435  Network.dyn_peer[217]  lookupHopsSig:vector  ETV
vector 508434  Network.dyn_peer[217]  lookupTimeSig:vector  ETV
vector 508467  Network.dyn_peer[233]  lookupHopsSig:vector  ETV
vector 508466  Network.dyn_peer[233]  lookupTimeSig:vector  ETV
vector 508429  Network.dyn_peer[214]  lookupHopsSig:vector  ETV
vector 508428  Network.dyn_peer[214]  lookupTimeSig:vector  ETV
vector 508405  Network.dyn_peer[202]  lookupHopsSig:vector  ETV
vector 508404  Network.dyn_peer[202]  lookupTimeSig:vector  ETV
vector 508413  Network.dyn_peer[206]  lookupHopsSig:vector  ETV
vector 508412  Network.dyn_peer[206]  lookupTimeSig:vector  ETV
vector 508473  Network.dyn_peer[236]  lookupHopsSig:vector  ETV
vector 508472  Network.dyn_peer[236]  lookupTimeSig:vector  ETV
vector 508403  Network.dyn_peer[201]  lookupHopsSig:vector  ETV
vector 508402  Network.dyn_peer[201]  lookupTimeSig:vector  ETV
vector 508451  Network.dyn_peer[225]  lookupHopsSig:vector  ETV
vector 508450  Network.dyn_peer[225]  lookupTimeSig:vector  ETV
vector 508477  Network.dyn_peer[238]  lookupHopsSig:vector  ETV
vector 508476  Network.dyn_peer[238]  lookupTimeSig:vector  ETV