file 1029948 1369167607                                         
version 2
run Stability-3-20130521-22:20:02-23591
attr configname Stability
attr datetime 20130521-22:20:02
attr experiment Stability
attr inifile omnetpp.ini
attr iterationvars $0=8
attr iterationvars2 "$0=8, $repetition=3"
attr measurement $0=8
attr network Network
attr processid 23591
attr repetition 3
attr replication #3
attr resultdir results
attr runnumber 3
attr seedset 3

vector 6001  Network.dyn_peer[0]  lookupHopsSig:vector  ETV
vector 6000  Network.dyn_peer[0]  lookupTimeSig:vector  ETV
vector 6003  Network.dyn_peer[1]  lookupHopsSig:vector  ETV
vector 6002  Network.dyn_peer[1]  lookupTimeSig:vector  ETV
vector 6005  Network.dyn_peer[2]  lookupHopsSig:vector  ETV
vector 6004  Network.dyn_peer[2]  lookupTimeSig:vector  ETV
vector 6007  Network.dyn_peer[3]  lookupHopsSig:vector  ETV
vector 6006  Network.dyn_peer[3]  lookupTimeSig:vector  ETV
vector 6009  Network.dyn_peer[4]  lookupHopsSig:vector  ETV
vector 6008  Network.dyn_peer[4]  lookupTimeSig:vector  ETV
vector 6011  Network.dyn_peer[5]  lookupHopsSig:vector  ETV
vector 6010  Network.dyn_peer[5]  lookupTimeSig:vector  ETV
vector 6013  Network.dyn_peer[6]  lookupHopsSig:vector  ETV
vector 6012  Network.dyn_peer[6]  lookupTimeSig:vector  ETV
vector 6015  Network.dyn_peer[7]  lookupHopsSig:vector  ETV
vector 6014  Network.dyn_peer[7]  lookupTimeSig:vector  ETV
vector 6017  Network.dyn_peer[8]  lookupHopsSig:vector  ETV
vector 6016  Network.dyn_peer[8]  lookupTimeSig:vector  ETV
vector 6019  Network.dyn_peer[9]  lookupHopsSig:vector  ETV
vector 6018  Network.dyn_peer[9]  lookupTimeSig:vector  ETV
vector 6021  Network.dyn_peer[10]  lookupHopsSig:vector  ETV
vector 6020  Network.dyn_peer[10]  lookupTimeSig:vector  ETV
vector 6023  Network.dyn_peer[11]  lookupHopsSig:vector  ETV
vector 6022  Network.dyn_peer[11]  lookupTimeSig:vector  ETV
vector 6025  Network.dyn_peer[12]  lookupHopsSig:vector  ETV
vector 6024  Network.dyn_peer[12]  lookupTimeSig:vector  ETV
vector 6027  Network.dyn_peer[13]  lookupHopsSig:vector  ETV
vector 6026  Network.dyn_peer[13]  lookupTimeSig:vector  ETV
vector 6029  Network.dyn_peer[14]  lookupHopsSig:vector  ETV
vector 6028  Network.dyn_peer[14]  lookupTimeSig:vector  ETV
vector 6031  Network.dyn_peer[15]  lookupHopsSig:vector  ETV
vector 6030  Network.dyn_peer[15]  lookupTimeSig:vector  ETV
vector 6033  Network.dyn_peer[16]  lookupHopsSig:vector  ETV
vector 6032  Network.dyn_peer[16]  lookupTimeSig:vector  ETV
vector 6035  Network.dyn_peer[17]  lookupHopsSig:vector  ETV
vector 6034  Network.dyn_peer[17]  lookupTimeSig:vector  ETV
vector 6037  Network.dyn_peer[18]  lookupHopsSig:vector  ETV
vector 6036  Network.dyn_peer[18]  lookupTimeSig:vector  ETV
vector 6039  Network.dyn_peer[19]  lookupHopsSig:vector  ETV
vector 6038  Network.dyn_peer[19]  lookupTimeSig:vector  ETV
vector 6041  Network.dyn_peer[20]  lookupHopsSig:vector  ETV
vector 6040  Network.dyn_peer[20]  lookupTimeSig:vector  ETV
vector 6043  Network.dyn_peer[21]  lookupHopsSig:vector  ETV
vector 6042  Network.dyn_peer[21]  lookupTimeSig:vector  ETV
vector 6045  Network.dyn_peer[22]  lookupHopsSig:vector  ETV
vector 6044  Network.dyn_peer[22]  lookupTimeSig:vector  ETV
vector 6047  Network.dyn_peer[23]  lookupHopsSig:vector  ETV
vector 6046  Network.dyn_peer[23]  lookupTimeSig:vector  ETV
vector 6049  Network.dyn_peer[24]  lookupHopsSig:vector  ETV
vector 6048  Network.dyn_peer[24]  lookupTimeSig:vector  ETV
vector 6051  Network.dyn_peer[25]  lookupHopsSig:vector  ETV
vector 6050  Network.dyn_peer[25]  lookupTimeSig:vector  ETV
vector 6053  Network.dyn_peer[26]  lookupHopsSig:vector  ETV
vector 6052  Network.dyn_peer[26]  lookupTimeSig:vector  ETV
vector 6055  Network.dyn_peer[27]  lookupHopsSig:vector  ETV
vector 6054  Network.dyn_peer[27]  lookupTimeSig:vector  ETV
vector 6057  Network.dyn_peer[28]  lookupHopsSig:vector  ETV
vector 6056  Network.dyn_peer[28]  lookupTimeSig:vector  ETV
vector 6059  Network.dyn_peer[29]  lookupHopsSig:vector  ETV
vector 6058  Network.dyn_peer[29]  lookupTimeSig:vector  ETV
vector 6061  Network.dyn_peer[30]  lookupHopsSig:vector  ETV
vector 6060  Network.dyn_peer[30]  lookupTimeSig:vector  ETV
vector 6063  Network.dyn_peer[31]  lookupHopsSig:vector  ETV
vector 6062  Network.dyn_peer[31]  lookupTimeSig:vector  ETV
vector 6065  Network.dyn_peer[32]  lookupHopsSig:vector  ETV
vector 6064  Network.dyn_peer[32]  lookupTimeSig:vector  ETV
vector 6067  Network.dyn_peer[33]  lookupHopsSig:vector  ETV
vector 6066  Network.dyn_peer[33]  lookupTimeSig:vector  ETV
vector 6069  Network.dyn_peer[34]  lookupHopsSig:vector  ETV
vector 6068  Network.dyn_peer[34]  lookupTimeSig:vector  ETV
vector 6071  Network.dyn_peer[35]  lookupHopsSig:vector  ETV
vector 6070  Network.dyn_peer[35]  lookupTimeSig:vector  ETV
vector 6073  Network.dyn_peer[36]  lookupHopsSig:vector  ETV
vector 6072  Network.dyn_peer[36]  lookupTimeSig:vector  ETV
vector 6075  Network.dyn_peer[37]  lookupHopsSig:vector  ETV
vector 6074  Network.dyn_peer[37]  lookupTimeSig:vector  ETV
vector 6077  Network.dyn_peer[38]  lookupHopsSig:vector  ETV
vector 6076  Network.dyn_peer[38]  lookupTimeSig:vector  ETV
vector 6079  Network.dyn_peer[39]  lookupHopsSig:vector  ETV
vector 6078  Network.dyn_peer[39]  lookupTimeSig:vector  ETV
vector 6081  Network.dyn_peer[40]  lookupHopsSig:vector  ETV
vector 6080  Network.dyn_peer[40]  lookupTimeSig:vector  ETV
vector 6083  Network.dyn_peer[41]  lookupHopsSig:vector  ETV
vector 6082  Network.dyn_peer[41]  lookupTimeSig:vector  ETV
vector 6085  Network.dyn_peer[42]  lookupHopsSig:vector  ETV
vector 6084  Network.dyn_peer[42]  lookupTimeSig:vector  ETV
vector 6087  Network.dyn_peer[43]  lookupHopsSig:vector  ETV
vector 6086  Network.dyn_peer[43]  lookupTimeSig:vector  ETV
vector 6089  Network.dyn_peer[44]  lookupHopsSig:vector  ETV
vector 6088  Network.dyn_peer[44]  lookupTimeSig:vector  ETV
vector 6091  Network.dyn_peer[45]  lookupHopsSig:vector  ETV
vector 6090  Network.dyn_peer[45]  lookupTimeSig:vector  ETV
vector 6093  Network.dyn_peer[46]  lookupHopsSig:vector  ETV
vector 6092  Network.dyn_peer[46]  lookupTimeSig:vector  ETV
vector 6095  Network.dyn_peer[47]  lookupHopsSig:vector  ETV
vector 6094  Network.dyn_peer[47]  lookupTimeSig:vector  ETV
vector 6097  Network.dyn_peer[48]  lookupHopsSig:vector  ETV
vector 6096  Network.dyn_peer[48]  lookupTimeSig:vector  ETV
vector 6099  Network.dyn_peer[49]  lookupHopsSig:vector  ETV
vector 6098  Network.dyn_peer[49]  lookupTimeSig:vector  ETV
vector 6101  Network.dyn_peer[50]  lookupHopsSig:vector  ETV
vector 6100  Network.dyn_peer[50]  lookupTimeSig:vector  ETV
vector 6103  Network.dyn_peer[51]  lookupHopsSig:vector  ETV
vector 6102  Network.dyn_peer[51]  lookupTimeSig:vector  ETV
vector 6105  Network.dyn_peer[52]  lookupHopsSig:vector  ETV
vector 6104  Network.dyn_peer[52]  lookupTimeSig:vector  ETV
vector 6107  Network.dyn_peer[53]  lookupHopsSig:vector  ETV
vector 6106  Network.dyn_peer[53]  lookupTimeSig:vector  ETV
vector 6109  Network.dyn_peer[54]  lookupHopsSig:vector  ETV
vector 6108  Network.dyn_peer[54]  lookupTimeSig:vector  ETV
vector 6111  Network.dyn_peer[55]  lookupHopsSig:vector  ETV
vector 6110  Network.dyn_peer[55]  lookupTimeSig:vector  ETV
vector 6113  Network.dyn_peer[56]  lookupHopsSig:vector  ETV
vector 6112  Network.dyn_peer[56]  lookupTimeSig:vector  ETV
vector 6115  Network.dyn_peer[57]  lookupHopsSig:vector  ETV
vector 6114  Network.dyn_peer[57]  lookupTimeSig:vector  ETV
vector 6117  Network.dyn_peer[58]  lookupHopsSig:vector  ETV
vector 6116  Network.dyn_peer[58]  lookupTimeSig:vector  ETV
vector 6119  Network.dyn_peer[59]  lookupHopsSig:vector  ETV
vector 6118  Network.dyn_peer[59]  lookupTimeSig:vector  ETV
vector 6121  Network.dyn_peer[60]  lookupHopsSig:vector  ETV
vector 6120  Network.dyn_peer[60]  lookupTimeSig:vector  ETV
vector 6123  Network.dyn_peer[61]  lookupHopsSig:vector  ETV
vector 6122  Network.dyn_peer[61]  lookupTimeSig:vector  ETV
vector 6125  Network.dyn_peer[62]  lookupHopsSig:vector  ETV
vector 6124  Network.dyn_peer[62]  lookupTimeSig:vector  ETV
vector 6127  Network.dyn_peer[63]  lookupHopsSig:vector  ETV
vector 6126  Network.dyn_peer[63]  lookupTimeSig:vector  ETV
vector 6129  Network.dyn_peer[64]  lookupHopsSig:vector  ETV
vector 6128  Network.dyn_peer[64]  lookupTimeSig:vector  ETV
vector 6131  Network.dyn_peer[65]  lookupHopsSig:vector  ETV
vector 6130  Network.dyn_peer[65]  lookupTimeSig:vector  ETV
vector 6133  Network.dyn_peer[66]  lookupHopsSig:vector  ETV
vector 6132  Network.dyn_peer[66]  lookupTimeSig:vector  ETV
vector 6135  Network.dyn_peer[67]  lookupHopsSig:vector  ETV
vector 6134  Network.dyn_peer[67]  lookupTimeSig:vector  ETV
vector 6137  Network.dyn_peer[68]  lookupHopsSig:vector  ETV
vector 6136  Network.dyn_peer[68]  lookupTimeSig:vector  ETV
vector 6139  Network.dyn_peer[69]  lookupHopsSig:vector  ETV
vector 6138  Network.dyn_peer[69]  lookupTimeSig:vector  ETV
vector 6141  Network.dyn_peer[70]  lookupHopsSig:vector  ETV
vector 6140  Network.dyn_peer[70]  lookupTimeSig:vector  ETV
vector 6143  Network.dyn_peer[71]  lookupHopsSig:vector  ETV
vector 6142  Network.dyn_peer[71]  lookupTimeSig:vector  ETV
vector 6145  Network.dyn_peer[72]  lookupHopsSig:vector  ETV
vector 6144  Network.dyn_peer[72]  lookupTimeSig:vector  ETV
vector 6147  Network.dyn_peer[73]  lookupHopsSig:vector  ETV
vector 6146  Network.dyn_peer[73]  lookupTimeSig:vector  ETV
vector 6149  Network.dyn_peer[74]  lookupHopsSig:vector  ETV
vector 6148  Network.dyn_peer[74]  lookupTimeSig:vector  ETV
vector 6151  Network.dyn_peer[75]  lookupHopsSig:vector  ETV
vector 6150  Network.dyn_peer[75]  lookupTimeSig:vector  ETV
vector 6153  Network.dyn_peer[76]  lookupHopsSig:vector  ETV
vector 6152  Network.dyn_peer[76]  lookupTimeSig:vector  ETV
vector 6155  Network.dyn_peer[77]  lookupHopsSig:vector  ETV
vector 6154  Network.dyn_peer[77]  lookupTimeSig:vector  ETV
vector 6157  Network.dyn_peer[78]  lookupHopsSig:vector  ETV
vector 6156  Network.dyn_peer[78]  lookupTimeSig:vector  ETV
vector 6159  Network.dyn_peer[79]  lookupHopsSig:vector  ETV
vector 6158  Network.dyn_peer[79]  lookupTimeSig:vector  ETV
vector 6161  Network.dyn_peer[80]  lookupHopsSig:vector  ETV
vector 6160  Network.dyn_peer[80]  lookupTimeSig:vector  ETV
vector 6163  Network.dyn_peer[81]  lookupHopsSig:vector  ETV
vector 6162  Network.dyn_peer[81]  lookupTimeSig:vector  ETV
vector 6165  Network.dyn_peer[82]  lookupHopsSig:vector  ETV
vector 6164  Network.dyn_peer[82]  lookupTimeSig:vector  ETV
vector 6167  Network.dyn_peer[83]  lookupHopsSig:vector  ETV
vector 6166  Network.dyn_peer[83]  lookupTimeSig:vector  ETV
vector 6169  Network.dyn_peer[84]  lookupHopsSig:vector  ETV
vector 6168  Network.dyn_peer[84]  lookupTimeSig:vector  ETV
vector 6171  Network.dyn_peer[85]  lookupHopsSig:vector  ETV
vector 6170  Network.dyn_peer[85]  lookupTimeSig:vector  ETV
vector 6173  Network.dyn_peer[86]  lookupHopsSig:vector  ETV
vector 6172  Network.dyn_peer[86]  lookupTimeSig:vector  ETV
vector 6175  Network.dyn_peer[87]  lookupHopsSig:vector  ETV
vector 6174  Network.dyn_peer[87]  lookupTimeSig:vector  ETV
vector 6177  Network.dyn_peer[88]  lookupHopsSig:vector  ETV
vector 6176  Network.dyn_peer[88]  lookupTimeSig:vector  ETV
vector 6179  Network.dyn_peer[89]  lookupHopsSig:vector  ETV
vector 6178  Network.dyn_peer[89]  lookupTimeSig:vector  ETV
vector 6181  Network.dyn_peer[90]  lookupHopsSig:vector  ETV
vector 6180  Network.dyn_peer[90]  lookupTimeSig:vector  ETV
vector 6183  Network.dyn_peer[91]  lookupHopsSig:vector  ETV
vector 6182  Network.dyn_peer[91]  lookupTimeSig:vector  ETV
vector 6185  Network.dyn_peer[92]  lookupHopsSig:vector  ETV
vector 6184  Network.dyn_peer[92]  lookupTimeSig:vector  ETV
vector 6187  Network.dyn_peer[93]  lookupHopsSig:vector  ETV
vector 6186  Network.dyn_peer[93]  lookupTimeSig:vector  ETV
vector 6189  Network.dyn_peer[94]  lookupHopsSig:vector  ETV
vector 6188  Network.dyn_peer[94]  lookupTimeSig:vector  ETV
vector 6191  Network.dyn_peer[95]  lookupHopsSig:vector  ETV
vector 6190  Network.dyn_peer[95]  lookupTimeSig:vector  ETV
vector 6193  Network.dyn_peer[96]  lookupHopsSig:vector  ETV
vector 6192  Network.dyn_peer[96]  lookupTimeSig:vector  ETV
vector 6195  Network.dyn_peer[97]  lookupHopsSig:vector  ETV
vector 6194  Network.dyn_peer[97]  lookupTimeSig:vector  ETV
vector 6197  Network.dyn_peer[98]  lookupHopsSig:vector  ETV
vector 6196  Network.dyn_peer[98]  lookupTimeSig:vector  ETV
vector 6199  Network.dyn_peer[99]  lookupHopsSig:vector  ETV
vector 6198  Network.dyn_peer[99]  lookupTimeSig:vector  ETV
vector 6201  Network.dyn_peer[100]  lookupHopsSig:vector  ETV
vector 6200  Network.dyn_peer[100]  lookupTimeSig:vector  ETV
vector 6203  Network.dyn_peer[101]  lookupHopsSig:vector  ETV
vector 6202  Network.dyn_peer[101]  lookupTimeSig:vector  ETV
vector 6205  Network.dyn_peer[102]  lookupHopsSig:vector  ETV
vector 6204  Network.dyn_peer[102]  lookupTimeSig:vector  ETV
vector 6207  Network.dyn_peer[103]  lookupHopsSig:vector  ETV
vector 6206  Network.dyn_peer[103]  lookupTimeSig:vector  ETV
vector 6209  Network.dyn_peer[104]  lookupHopsSig:vector  ETV
vector 6208  Network.dyn_peer[104]  lookupTimeSig:vector  ETV
vector 6211  Network.dyn_peer[105]  lookupHopsSig:vector  ETV
vector 6210  Network.dyn_peer[105]  lookupTimeSig:vector  ETV
vector 6213  Network.dyn_peer[106]  lookupHopsSig:vector  ETV
vector 6212  Network.dyn_peer[106]  lookupTimeSig:vector  ETV
vector 6215  Network.dyn_peer[107]  lookupHopsSig:vector  ETV
vector 6214  Network.dyn_peer[107]  lookupTimeSig:vector  ETV
vector 6217  Network.dyn_peer[108]  lookupHopsSig:vector  ETV
vector 6216  Network.dyn_peer[108]  lookupTimeSig:vector  ETV
vector 6219  Network.dyn_peer[109]  lookupHopsSig:vector  ETV
vector 6218  Network.dyn_peer[109]  lookupTimeSig:vector  ETV
vector 6221  Network.dyn_peer[110]  lookupHopsSig:vector  ETV
vector 6220  Network.dyn_peer[110]  lookupTimeSig:vector  ETV
vector 6223  Network.dyn_peer[111]  lookupHopsSig:vector  ETV
vector 6222  Network.dyn_peer[111]  lookupTimeSig:vector  ETV
vector 6225  Network.dyn_peer[112]  lookupHopsSig:vector  ETV
vector 6224  Network.dyn_peer[112]  lookupTimeSig:vector  ETV
vector 6227  Network.dyn_peer[113]  lookupHopsSig:vector  ETV
vector 6226  Network.dyn_peer[113]  lookupTimeSig:vector  ETV
vector 6229  Network.dyn_peer[114]  lookupHopsSig:vector  ETV
vector 6228  Network.dyn_peer[114]  lookupTimeSig:vector  ETV
vector 6231  Network.dyn_peer[115]  lookupHopsSig:vector  ETV
vector 6230  Network.dyn_peer[115]  lookupTimeSig:vector  ETV
vector 6233  Network.dyn_peer[116]  lookupHopsSig:vector  ETV
vector 6232  Network.dyn_peer[116]  lookupTimeSig:vector  ETV
vector 6235  Network.dyn_peer[117]  lookupHopsSig:vector  ETV
vector 6234  Network.dyn_peer[117]  lookupTimeSig:vector  ETV
vector 6237  Network.dyn_peer[118]  lookupHopsSig:vector  ETV
vector 6236  Network.dyn_peer[118]  lookupTimeSig:vector  ETV
vector 6239  Network.dyn_peer[119]  lookupHopsSig:vector  ETV
vector 6238  Network.dyn_peer[119]  lookupTimeSig:vector  ETV
vector 6241  Network.dyn_peer[120]  lookupHopsSig:vector  ETV
vector 6240  Network.dyn_peer[120]  lookupTimeSig:vector  ETV
vector 6243  Network.dyn_peer[121]  lookupHopsSig:vector  ETV
vector 6242  Network.dyn_peer[121]  lookupTimeSig:vector  ETV
vector 6245  Network.dyn_peer[122]  lookupHopsSig:vector  ETV
vector 6244  Network.dyn_peer[122]  lookupTimeSig:vector  ETV
vector 6247  Network.dyn_peer[123]  lookupHopsSig:vector  ETV
vector 6246  Network.dyn_peer[123]  lookupTimeSig:vector  ETV
vector 6249  Network.dyn_peer[124]  lookupHopsSig:vector  ETV
vector 6248  Network.dyn_peer[124]  lookupTimeSig:vector  ETV
vector 6251  Network.dyn_peer[125]  lookupHopsSig:vector  ETV
vector 6250  Network.dyn_peer[125]  lookupTimeSig:vector  ETV
vector 6253  Network.dyn_peer[126]  lookupHopsSig:vector  ETV
vector 6252  Network.dyn_peer[126]  lookupTimeSig:vector  ETV
vector 6255  Network.dyn_peer[127]  lookupHopsSig:vector  ETV
vector 6254  Network.dyn_peer[127]  lookupTimeSig:vector  ETV
vector 6257  Network.dyn_peer[128]  lookupHopsSig:vector  ETV
vector 6256  Network.dyn_peer[128]  lookupTimeSig:vector  ETV
vector 6259  Network.dyn_peer[129]  lookupHopsSig:vector  ETV
vector 6258  Network.dyn_peer[129]  lookupTimeSig:vector  ETV
vector 6261  Network.dyn_peer[130]  lookupHopsSig:vector  ETV
vector 6260  Network.dyn_peer[130]  lookupTimeSig:vector  ETV
vector 6263  Network.dyn_peer[131]  lookupHopsSig:vector  ETV
vector 6262  Network.dyn_peer[131]  lookupTimeSig:vector  ETV
vector 6265  Network.dyn_peer[132]  lookupHopsSig:vector  ETV
vector 6264  Network.dyn_peer[132]  lookupTimeSig:vector  ETV
vector 6267  Network.dyn_peer[133]  lookupHopsSig:vector  ETV
vector 6266  Network.dyn_peer[133]  lookupTimeSig:vector  ETV
vector 6269  Network.dyn_peer[134]  lookupHopsSig:vector  ETV
vector 6268  Network.dyn_peer[134]  lookupTimeSig:vector  ETV
vector 6271  Network.dyn_peer[135]  lookupHopsSig:vector  ETV
vector 6270  Network.dyn_peer[135]  lookupTimeSig:vector  ETV
vector 6273  Network.dyn_peer[136]  lookupHopsSig:vector  ETV
vector 6272  Network.dyn_peer[136]  lookupTimeSig:vector  ETV
vector 6275  Network.dyn_peer[137]  lookupHopsSig:vector  ETV
vector 6274  Network.dyn_peer[137]  lookupTimeSig:vector  ETV
vector 6277  Network.dyn_peer[138]  lookupHopsSig:vector  ETV
vector 6276  Network.dyn_peer[138]  lookupTimeSig:vector  ETV
vector 6279  Network.dyn_peer[139]  lookupHopsSig:vector  ETV
vector 6278  Network.dyn_peer[139]  lookupTimeSig:vector  ETV
vector 6281  Network.dyn_peer[140]  lookupHopsSig:vector  ETV
vector 6280  Network.dyn_peer[140]  lookupTimeSig:vector  ETV
vector 6283  Network.dyn_peer[141]  lookupHopsSig:vector  ETV
vector 6282  Network.dyn_peer[141]  lookupTimeSig:vector  ETV
vector 6285  Network.dyn_peer[142]  lookupHopsSig:vector  ETV
vector 6284  Network.dyn_peer[142]  lookupTimeSig:vector  ETV
vector 6287  Network.dyn_peer[143]  lookupHopsSig:vector  ETV
vector 6286  Network.dyn_peer[143]  lookupTimeSig:vector  ETV
vector 6289  Network.dyn_peer[144]  lookupHopsSig:vector  ETV
vector 6288  Network.dyn_peer[144]  lookupTimeSig:vector  ETV
vector 6291  Network.dyn_peer[145]  lookupHopsSig:vector  ETV
vector 6290  Network.dyn_peer[145]  lookupTimeSig:vector  ETV
vector 6293  Network.dyn_peer[146]  lookupHopsSig:vector  ETV
vector 6292  Network.dyn_peer[146]  lookupTimeSig:vector  ETV
vector 6295  Network.dyn_peer[147]  lookupHopsSig:vector  ETV
vector 6294  Network.dyn_peer[147]  lookupTimeSig:vector  ETV
vector 6297  Network.dyn_peer[148]  lookupHopsSig:vector  ETV
vector 6296  Network.dyn_peer[148]  lookupTimeSig:vector  ETV
vector 6299  Network.dyn_peer[149]  lookupHopsSig:vector  ETV
vector 6298  Network.dyn_peer[149]  lookupTimeSig:vector  ETV
vector 6301  Network.dyn_peer[150]  lookupHopsSig:vector  ETV
vector 6300  Network.dyn_peer[150]  lookupTimeSig:vector  ETV
vector 6303  Network.dyn_peer[151]  lookupHopsSig:vector  ETV
vector 6302  Network.dyn_peer[151]  lookupTimeSig:vector  ETV
vector 6305  Network.dyn_peer[152]  lookupHopsSig:vector  ETV
vector 6304  Network.dyn_peer[152]  lookupTimeSig:vector  ETV
vector 6307  Network.dyn_peer[153]  lookupHopsSig:vector  ETV
vector 6306  Network.dyn_peer[153]  lookupTimeSig:vector  ETV
vector 6309  Network.dyn_peer[154]  lookupHopsSig:vector  ETV
vector 6308  Network.dyn_peer[154]  lookupTimeSig:vector  ETV
vector 6311  Network.dyn_peer[155]  lookupHopsSig:vector  ETV
vector 6310  Network.dyn_peer[155]  lookupTimeSig:vector  ETV
vector 6313  Network.dyn_peer[156]  lookupHopsSig:vector  ETV
vector 6312  Network.dyn_peer[156]  lookupTimeSig:vector  ETV
vector 6315  Network.dyn_peer[157]  lookupHopsSig:vector  ETV
vector 6314  Network.dyn_peer[157]  lookupTimeSig:vector  ETV
vector 6317  Network.dyn_peer[158]  lookupHopsSig:vector  ETV
vector 6316  Network.dyn_peer[158]  lookupTimeSig:vector  ETV
vector 6319  Network.dyn_peer[159]  lookupHopsSig:vector  ETV
vector 6318  Network.dyn_peer[159]  lookupTimeSig:vector  ETV
vector 6321  Network.dyn_peer[160]  lookupHopsSig:vector  ETV
vector 6320  Network.dyn_peer[160]  lookupTimeSig:vector  ETV
vector 6323  Network.dyn_peer[161]  lookupHopsSig:vector  ETV
vector 6322  Network.dyn_peer[161]  lookupTimeSig:vector  ETV
vector 6325  Network.dyn_peer[162]  lookupHopsSig:vector  ETV
vector 6324  Network.dyn_peer[162]  lookupTimeSig:vector  ETV
vector 6327  Network.dyn_peer[163]  lookupHopsSig:vector  ETV
vector 6326  Network.dyn_peer[163]  lookupTimeSig:vector  ETV
vector 6329  Network.dyn_peer[164]  lookupHopsSig:vector  ETV
vector 6328  Network.dyn_peer[164]  lookupTimeSig:vector  ETV
vector 6331  Network.dyn_peer[165]  lookupHopsSig:vector  ETV
vector 6330  Network.dyn_peer[165]  lookupTimeSig:vector  ETV
vector 6333  Network.dyn_peer[166]  lookupHopsSig:vector  ETV
vector 6332  Network.dyn_peer[166]  lookupTimeSig:vector  ETV
vector 6335  Network.dyn_peer[167]  lookupHopsSig:vector  ETV
vector 6334  Network.dyn_peer[167]  lookupTimeSig:vector  ETV
vector 6337  Network.dyn_peer[168]  lookupHopsSig:vector  ETV
vector 6336  Network.dyn_peer[168]  lookupTimeSig:vector  ETV
vector 6339  Network.dyn_peer[169]  lookupHopsSig:vector  ETV
vector 6338  Network.dyn_peer[169]  lookupTimeSig:vector  ETV
vector 6341  Network.dyn_peer[170]  lookupHopsSig:vector  ETV
vector 6340  Network.dyn_peer[170]  lookupTimeSig:vector  ETV
vector 6343  Network.dyn_peer[171]  lookupHopsSig:vector  ETV
vector 6342  Network.dyn_peer[171]  lookupTimeSig:vector  ETV
vector 6345  Network.dyn_peer[172]  lookupHopsSig:vector  ETV
vector 6344  Network.dyn_peer[172]  lookupTimeSig:vector  ETV
vector 6347  Network.dyn_peer[173]  lookupHopsSig:vector  ETV
vector 6346  Network.dyn_peer[173]  lookupTimeSig:vector  ETV
vector 6349  Network.dyn_peer[174]  lookupHopsSig:vector  ETV
vector 6348  Network.dyn_peer[174]  lookupTimeSig:vector  ETV
vector 6351  Network.dyn_peer[175]  lookupHopsSig:vector  ETV
vector 6350  Network.dyn_peer[175]  lookupTimeSig:vector  ETV
vector 6353  Network.dyn_peer[176]  lookupHopsSig:vector  ETV
vector 6352  Network.dyn_peer[176]  lookupTimeSig:vector  ETV
vector 6355  Network.dyn_peer[177]  lookupHopsSig:vector  ETV
vector 6354  Network.dyn_peer[177]  lookupTimeSig:vector  ETV
vector 6357  Network.dyn_peer[178]  lookupHopsSig:vector  ETV
vector 6356  Network.dyn_peer[178]  lookupTimeSig:vector  ETV
vector 6359  Network.dyn_peer[179]  lookupHopsSig:vector  ETV
vector 6358  Network.dyn_peer[179]  lookupTimeSig:vector  ETV
vector 6361  Network.dyn_peer[180]  lookupHopsSig:vector  ETV
vector 6360  Network.dyn_peer[180]  lookupTimeSig:vector  ETV
vector 6363  Network.dyn_peer[181]  lookupHopsSig:vector  ETV
vector 6362  Network.dyn_peer[181]  lookupTimeSig:vector  ETV
vector 6365  Network.dyn_peer[182]  lookupHopsSig:vector  ETV
vector 6364  Network.dyn_peer[182]  lookupTimeSig:vector  ETV
vector 6367  Network.dyn_peer[183]  lookupHopsSig:vector  ETV
vector 6366  Network.dyn_peer[183]  lookupTimeSig:vector  ETV
vector 6369  Network.dyn_peer[184]  lookupHopsSig:vector  ETV
vector 6368  Network.dyn_peer[184]  lookupTimeSig:vector  ETV
vector 6371  Network.dyn_peer[185]  lookupHopsSig:vector  ETV
vector 6370  Network.dyn_peer[185]  lookupTimeSig:vector  ETV
vector 6373  Network.dyn_peer[186]  lookupHopsSig:vector  ETV
vector 6372  Network.dyn_peer[186]  lookupTimeSig:vector  ETV
vector 6375  Network.dyn_peer[187]  lookupHopsSig:vector  ETV
vector 6374  Network.dyn_peer[187]  lookupTimeSig:vector  ETV
vector 6377  Network.dyn_peer[188]  lookupHopsSig:vector  ETV
vector 6376  Network.dyn_peer[188]  lookupTimeSig:vector  ETV
vector 6379  Network.dyn_peer[189]  lookupHopsSig:vector  ETV
vector 6378  Network.dyn_peer[189]  lookupTimeSig:vector  ETV
vector 6381  Network.dyn_peer[190]  lookupHopsSig:vector  ETV
vector 6380  Network.dyn_peer[190]  lookupTimeSig:vector  ETV
vector 6383  Network.dyn_peer[191]  lookupHopsSig:vector  ETV
vector 6382  Network.dyn_peer[191]  lookupTimeSig:vector  ETV
vector 6385  Network.dyn_peer[192]  lookupHopsSig:vector  ETV
vector 6384  Network.dyn_peer[192]  lookupTimeSig:vector  ETV
vector 6387  Network.dyn_peer[193]  lookupHopsSig:vector  ETV
vector 6386  Network.dyn_peer[193]  lookupTimeSig:vector  ETV
vector 6389  Network.dyn_peer[194]  lookupHopsSig:vector  ETV
vector 6388  Network.dyn_peer[194]  lookupTimeSig:vector  ETV
vector 6391  Network.dyn_peer[195]  lookupHopsSig:vector  ETV
vector 6390  Network.dyn_peer[195]  lookupTimeSig:vector  ETV
vector 6393  Network.dyn_peer[196]  lookupHopsSig:vector  ETV
vector 6392  Network.dyn_peer[196]  lookupTimeSig:vector  ETV
vector 6395  Network.dyn_peer[197]  lookupHopsSig:vector  ETV
vector 6394  Network.dyn_peer[197]  lookupTimeSig:vector  ETV
vector 6397  Network.dyn_peer[198]  lookupHopsSig:vector  ETV
vector 6396  Network.dyn_peer[198]  lookupTimeSig:vector  ETV
vector 6399  Network.dyn_peer[199]  lookupHopsSig:vector  ETV
vector 6398  Network.dyn_peer[199]  lookupTimeSig:vector  ETV
vector 6401  Network.dyn_peer[200]  lookupHopsSig:vector  ETV
vector 6400  Network.dyn_peer[200]  lookupTimeSig:vector  ETV
vector 6403  Network.dyn_peer[201]  lookupHopsSig:vector  ETV
vector 6402  Network.dyn_peer[201]  lookupTimeSig:vector  ETV
vector 6405  Network.dyn_peer[202]  lookupHopsSig:vector  ETV
vector 6404  Network.dyn_peer[202]  lookupTimeSig:vector  ETV
vector 6407  Network.dyn_peer[203]  lookupHopsSig:vector  ETV
vector 6406  Network.dyn_peer[203]  lookupTimeSig:vector  ETV
vector 6409  Network.dyn_peer[204]  lookupHopsSig:vector  ETV
vector 6408  Network.dyn_peer[204]  lookupTimeSig:vector  ETV
vector 6411  Network.dyn_peer[205]  lookupHopsSig:vector  ETV
vector 6410  Network.dyn_peer[205]  lookupTimeSig:vector  ETV
vector 6413  Network.dyn_peer[206]  lookupHopsSig:vector  ETV
vector 6412  Network.dyn_peer[206]  lookupTimeSig:vector  ETV
vector 6415  Network.dyn_peer[207]  lookupHopsSig:vector  ETV
vector 6414  Network.dyn_peer[207]  lookupTimeSig:vector  ETV
vector 6417  Network.dyn_peer[208]  lookupHopsSig:vector  ETV
vector 6416  Network.dyn_peer[208]  lookupTimeSig:vector  ETV
vector 6419  Network.dyn_peer[209]  lookupHopsSig:vector  ETV
vector 6418  Network.dyn_peer[209]  lookupTimeSig:vector  ETV
vector 6421  Network.dyn_peer[210]  lookupHopsSig:vector  ETV
vector 6420  Network.dyn_peer[210]  lookupTimeSig:vector  ETV
vector 6423  Network.dyn_peer[211]  lookupHopsSig:vector  ETV
vector 6422  Network.dyn_peer[211]  lookupTimeSig:vector  ETV
vector 6425  Network.dyn_peer[212]  lookupHopsSig:vector  ETV
vector 6424  Network.dyn_peer[212]  lookupTimeSig:vector  ETV
vector 6427  Network.dyn_peer[213]  lookupHopsSig:vector  ETV
vector 6426  Network.dyn_peer[213]  lookupTimeSig:vector  ETV
vector 6429  Network.dyn_peer[214]  lookupHopsSig:vector  ETV
vector 6428  Network.dyn_peer[214]  lookupTimeSig:vector  ETV
vector 6431  Network.dyn_peer[215]  lookupHopsSig:vector  ETV
vector 6430  Network.dyn_peer[215]  lookupTimeSig:vector  ETV
vector 6433  Network.dyn_peer[216]  lookupHopsSig:vector  ETV
vector 6432  Network.dyn_peer[216]  lookupTimeSig:vector  ETV
vector 6435  Network.dyn_peer[217]  lookupHopsSig:vector  ETV
vector 6434  Network.dyn_peer[217]  lookupTimeSig:vector  ETV
vector 6437  Network.dyn_peer[218]  lookupHopsSig:vector  ETV
vector 6436  Network.dyn_peer[218]  lookupTimeSig:vector  ETV
vector 6439  Network.dyn_peer[219]  lookupHopsSig:vector  ETV
vector 6438  Network.dyn_peer[219]  lookupTimeSig:vector  ETV
vector 6441  Network.dyn_peer[220]  lookupHopsSig:vector  ETV
vector 6440  Network.dyn_peer[220]  lookupTimeSig:vector  ETV
vector 6443  Network.dyn_peer[221]  lookupHopsSig:vector  ETV
vector 6442  Network.dyn_peer[221]  lookupTimeSig:vector  ETV
vector 6445  Network.dyn_peer[222]  lookupHopsSig:vector  ETV
vector 6444  Network.dyn_peer[222]  lookupTimeSig:vector  ETV
vector 6447  Network.dyn_peer[223]  lookupHopsSig:vector  ETV
vector 6446  Network.dyn_peer[223]  lookupTimeSig:vector  ETV
vector 6449  Network.dyn_peer[224]  lookupHopsSig:vector  ETV
vector 6448  Network.dyn_peer[224]  lookupTimeSig:vector  ETV
vector 6451  Network.dyn_peer[225]  lookupHopsSig:vector  ETV
vector 6450  Network.dyn_peer[225]  lookupTimeSig:vector  ETV
vector 6453  Network.dyn_peer[226]  lookupHopsSig:vector  ETV
vector 6452  Network.dyn_peer[226]  lookupTimeSig:vector  ETV
vector 6455  Network.dyn_peer[227]  lookupHopsSig:vector  ETV
vector 6454  Network.dyn_peer[227]  lookupTimeSig:vector  ETV
vector 6457  Network.dyn_peer[228]  lookupHopsSig:vector  ETV
vector 6456  Network.dyn_peer[228]  lookupTimeSig:vector  ETV
vector 6459  Network.dyn_peer[229]  lookupHopsSig:vector  ETV
vector 6458  Network.dyn_peer[229]  lookupTimeSig:vector  ETV
vector 6461  Network.dyn_peer[230]  lookupHopsSig:vector  ETV
vector 6460  Network.dyn_peer[230]  lookupTimeSig:vector  ETV
vector 6463  Network.dyn_peer[231]  lookupHopsSig:vector  ETV
vector 6462  Network.dyn_peer[231]  lookupTimeSig:vector  ETV
vector 6465  Network.dyn_peer[232]  lookupHopsSig:vector  ETV
vector 6464  Network.dyn_peer[232]  lookupTimeSig:vector  ETV
vector 6467  Network.dyn_peer[233]  lookupHopsSig:vector  ETV
vector 6466  Network.dyn_peer[233]  lookupTimeSig:vector  ETV
vector 6469  Network.dyn_peer[234]  lookupHopsSig:vector  ETV
vector 6468  Network.dyn_peer[234]  lookupTimeSig:vector  ETV
vector 6471  Network.dyn_peer[235]  lookupHopsSig:vector  ETV
vector 6470  Network.dyn_peer[235]  lookupTimeSig:vector  ETV
vector 6473  Network.dyn_peer[236]  lookupHopsSig:vector  ETV
vector 6472  Network.dyn_peer[236]  lookupTimeSig:vector  ETV
vector 6475  Network.dyn_peer[237]  lookupHopsSig:vector  ETV
vector 6474  Network.dyn_peer[237]  lookupTimeSig:vector  ETV
vector 6477  Network.dyn_peer[238]  lookupHopsSig:vector  ETV
vector 6476  Network.dyn_peer[238]  lookupTimeSig:vector  ETV
vector 6479  Network.dyn_peer[239]  lookupHopsSig:vector  ETV
vector 6478  Network.dyn_peer[239]  lookupTimeSig:vector  ETV