file 575999 1369169220                                          
version 2
run Stability-278-20130521-22:46:57-23591
attr configname Stability
attr datetime 20130521-22:46:57
attr experiment Stability
attr inifile omnetpp.ini
attr iterationvars $0=0.015625
attr iterationvars2 "$0=0.015625, $repetition=8"
attr measurement $0=0.015625
attr network Network
attr processid 23591
attr repetition 8
attr replication #8
attr resultdir results
attr runnumber 278
attr seedset 278

vector 556009  Network.dyn_peer[4]  lookupHopsSig:vector  ETV
vector 556008  Network.dyn_peer[4]  lookupTimeSig:vector  ETV
vector 556019  Network.dyn_peer[9]  lookupHopsSig:vector  ETV
vector 556018  Network.dyn_peer[9]  lookupTimeSig:vector  ETV
vector 556035  Network.dyn_peer[17]  lookupHopsSig:vector  ETV
vector 556034  Network.dyn_peer[17]  lookupTimeSig:vector  ETV
vector 556011  Network.dyn_peer[5]  lookupHopsSig:vector  ETV
vector 556010  Network.dyn_peer[5]  lookupTimeSig:vector  ETV
vector 556001  Network.dyn_peer[0]  lookupHopsSig:vector  ETV
vector 556000  Network.dyn_peer[0]  lookupTimeSig:vector  ETV
vector 556015  Network.dyn_peer[7]  lookupHopsSig:vector  ETV
vector 556014  Network.dyn_peer[7]  lookupTimeSig:vector  ETV
vector 556003  Network.dyn_peer[1]  lookupHopsSig:vector  ETV
vector 556002  Network.dyn_peer[1]  lookupTimeSig:vector  ETV
vector 556017  Network.dyn_peer[8]  lookupHopsSig:vector  ETV
vector 556016  Network.dyn_peer[8]  lookupTimeSig:vector  ETV
vector 556005  Network.dyn_peer[2]  lookupHopsSig:vector  ETV
vector 556004  Network.dyn_peer[2]  lookupTimeSig:vector  ETV
vector 556007  Network.dyn_peer[3]  lookupHopsSig:vector  ETV
vector 556006  Network.dyn_peer[3]  lookupTimeSig:vector  ETV
vector 556037  Network.dyn_peer[18]  lookupHopsSig:vector  ETV
vector 556036  Network.dyn_peer[18]  lookupTimeSig:vector  ETV
vector 556013  Network.dyn_peer[6]  lookupHopsSig:vector  ETV
vector 556012  Network.dyn_peer[6]  lookupTimeSig:vector  ETV
vector 556047  Network.dyn_peer[23]  lookupHopsSig:vector  ETV
vector 556046  Network.dyn_peer[23]  lookupTimeSig:vector  ETV
vector 556039  Network.dyn_peer[19]  lookupHopsSig:vector  ETV
vector 556038  Network.dyn_peer[19]  lookupTimeSig:vector  ETV
vector 556029  Network.dyn_peer[14]  lookupHopsSig:vector  ETV
vector 556028  Network.dyn_peer[14]  lookupTimeSig:vector  ETV
vector 556023  Network.dyn_peer[11]  lookupHopsSig:vector  ETV
vector 556022  Network.dyn_peer[11]  lookupTimeSig:vector  ETV
vector 556049  Network.dyn_peer[24]  lookupHopsSig:vector  ETV
vector 556048  Network.dyn_peer[24]  lookupTimeSig:vector  ETV
vector 556025  Network.dyn_peer[12]  lookupHopsSig:vector  ETV
vector 556024  Network.dyn_peer[12]  lookupTimeSig:vector  ETV
vector 556051  Network.dyn_peer[25]  lookupHopsSig:vector  ETV
vector 556050  Network.dyn_peer[25]  lookupTimeSig:vector  ETV
vector 556065  Network.dyn_peer[32]  lookupHopsSig:vector  ETV
vector 556064  Network.dyn_peer[32]  lookupTimeSig:vector  ETV
vector 556053  Network.dyn_peer[26]  lookupHopsSig:vector  ETV
vector 556052  Network.dyn_peer[26]  lookupTimeSig:vector  ETV
vector 556043  Network.dyn_peer[21]  lookupHopsSig:vector  ETV
vector 556042  Network.dyn_peer[21]  lookupTimeSig:vector  ETV
vector 556031  Network.dyn_peer[15]  lookupHopsSig:vector  ETV
vector 556030  Network.dyn_peer[15]  lookupTimeSig:vector  ETV
vector 556021  Network.dyn_peer[10]  lookupHopsSig:vector  ETV
vector 556020  Network.dyn_peer[10]  lookupTimeSig:vector  ETV
vector 556073  Network.dyn_peer[36]  lookupHopsSig:vector  ETV
vector 556072  Network.dyn_peer[36]  lookupTimeSig:vector  ETV
vector 556055  Network.dyn_peer[27]  lookupHopsSig:vector  ETV
vector 556054  Network.dyn_peer[27]  lookupTimeSig:vector  ETV
vector 556069  Network.dyn_peer[34]  lookupHopsSig:vector  ETV
vector 556068  Network.dyn_peer[34]  lookupTimeSig:vector  ETV
vector 556057  Network.dyn_peer[28]  lookupHopsSig:vector  ETV
vector 556056  Network.dyn_peer[28]  lookupTimeSig:vector  ETV
vector 556063  Network.dyn_peer[31]  lookupHopsSig:vector  ETV
vector 556062  Network.dyn_peer[31]  lookupTimeSig:vector  ETV
vector 556027  Network.dyn_peer[13]  lookupHopsSig:vector  ETV
vector 556026  Network.dyn_peer[13]  lookupTimeSig:vector  ETV
vector 556041  Network.dyn_peer[20]  lookupHopsSig:vector  ETV
vector 556040  Network.dyn_peer[20]  lookupTimeSig:vector  ETV
vector 556067  Network.dyn_peer[33]  lookupHopsSig:vector  ETV
vector 556066  Network.dyn_peer[33]  lookupTimeSig:vector  ETV
vector 556071  Network.dyn_peer[35]  lookupHopsSig:vector  ETV
vector 556070  Network.dyn_peer[35]  lookupTimeSig:vector  ETV
vector 556061  Network.dyn_peer[30]  lookupHopsSig:vector  ETV
vector 556060  Network.dyn_peer[30]  lookupTimeSig:vector  ETV
vector 556075  Network.dyn_peer[37]  lookupHopsSig:vector  ETV
vector 556074  Network.dyn_peer[37]  lookupTimeSig:vector  ETV
vector 556091  Network.dyn_peer[45]  lookupHopsSig:vector  ETV
vector 556090  Network.dyn_peer[45]  lookupTimeSig:vector  ETV
vector 556093  Network.dyn_peer[46]  lookupHopsSig:vector  ETV
vector 556092  Network.dyn_peer[46]  lookupTimeSig:vector  ETV
vector 556033  Network.dyn_peer[16]  lookupHopsSig:vector  ETV
vector 556032  Network.dyn_peer[16]  lookupTimeSig:vector  ETV
vector 556097  Network.dyn_peer[48]  lookupHopsSig:vector  ETV
vector 556096  Network.dyn_peer[48]  lookupTimeSig:vector  ETV
vector 556059  Network.dyn_peer[29]  lookupHopsSig:vector  ETV
vector 556058  Network.dyn_peer[29]  lookupTimeSig:vector  ETV
vector 556085  Network.dyn_peer[42]  lookupHopsSig:vector  ETV
vector 556084  Network.dyn_peer[42]  lookupTimeSig:vector  ETV
vector 556101  Network.dyn_peer[50]  lookupHopsSig:vector  ETV
vector 556100  Network.dyn_peer[50]  lookupTimeSig:vector  ETV
vector 556077  Network.dyn_peer[38]  lookupHopsSig:vector  ETV
vector 556076  Network.dyn_peer[38]  lookupTimeSig:vector  ETV
vector 556083  Network.dyn_peer[41]  lookupHopsSig:vector  ETV
vector 556082  Network.dyn_peer[41]  lookupTimeSig:vector  ETV
vector 556109  Network.dyn_peer[54]  lookupHopsSig:vector  ETV
vector 556108  Network.dyn_peer[54]  lookupTimeSig:vector  ETV
vector 556111  Network.dyn_peer[55]  lookupHopsSig:vector  ETV
vector 556110  Network.dyn_peer[55]  lookupTimeSig:vector  ETV
vector 556087  Network.dyn_peer[43]  lookupHopsSig:vector  ETV
vector 556086  Network.dyn_peer[43]  lookupTimeSig:vector  ETV
vector 556081  Network.dyn_peer[40]  lookupHopsSig:vector  ETV
vector 556080  Network.dyn_peer[40]  lookupTimeSig:vector  ETV
vector 556045  Network.dyn_peer[22]  lookupHopsSig:vector  ETV
vector 556044  Network.dyn_peer[22]  lookupTimeSig:vector  ETV
vector 556127  Network.dyn_peer[63]  lookupHopsSig:vector  ETV
vector 556126  Network.dyn_peer[63]  lookupTimeSig:vector  ETV
vector 556133  Network.dyn_peer[66]  lookupHopsSig:vector  ETV
vector 556132  Network.dyn_peer[66]  lookupTimeSig:vector  ETV
vector 556139  Network.dyn_peer[69]  lookupHopsSig:vector  ETV
vector 556138  Network.dyn_peer[69]  lookupTimeSig:vector  ETV
vector 556089  Network.dyn_peer[44]  lookupHopsSig:vector  ETV
vector 556088  Network.dyn_peer[44]  lookupTimeSig:vector  ETV
vector 556115  Network.dyn_peer[57]  lookupHopsSig:vector  ETV
vector 556114  Network.dyn_peer[57]  lookupTimeSig:vector  ETV
vector 556079  Network.dyn_peer[39]  lookupHopsSig:vector  ETV
vector 556078  Network.dyn_peer[39]  lookupTimeSig:vector  ETV
vector 556143  Network.dyn_peer[71]  lookupHopsSig:vector  ETV
vector 556142  Network.dyn_peer[71]  lookupTimeSig:vector  ETV
vector 556119  Network.dyn_peer[59]  lookupHopsSig:vector  ETV
vector 556118  Network.dyn_peer[59]  lookupTimeSig:vector  ETV
vector 556107  Network.dyn_peer[53]  lookupHopsSig:vector  ETV
vector 556106  Network.dyn_peer[53]  lookupTimeSig:vector  ETV
vector 556129  Network.dyn_peer[64]  lookupHopsSig:vector  ETV
vector 556128  Network.dyn_peer[64]  lookupTimeSig:vector  ETV
vector 556155  Network.dyn_peer[77]  lookupHopsSig:vector  ETV
vector 556154  Network.dyn_peer[77]  lookupTimeSig:vector  ETV
vector 556121  Network.dyn_peer[60]  lookupHopsSig:vector  ETV
vector 556120  Network.dyn_peer[60]  lookupTimeSig:vector  ETV
vector 556123  Network.dyn_peer[61]  lookupHopsSig:vector  ETV
vector 556122  Network.dyn_peer[61]  lookupTimeSig:vector  ETV
vector 556099  Network.dyn_peer[49]  lookupHopsSig:vector  ETV
vector 556098  Network.dyn_peer[49]  lookupTimeSig:vector  ETV
vector 556103  Network.dyn_peer[51]  lookupHopsSig:vector  ETV
vector 556102  Network.dyn_peer[51]  lookupTimeSig:vector  ETV
vector 556161  Network.dyn_peer[80]  lookupHopsSig:vector  ETV
vector 556160  Network.dyn_peer[80]  lookupTimeSig:vector  ETV
vector 556137  Network.dyn_peer[68]  lookupHopsSig:vector  ETV
vector 556136  Network.dyn_peer[68]  lookupTimeSig:vector  ETV
vector 556163  Network.dyn_peer[81]  lookupHopsSig:vector  ETV
vector 556162  Network.dyn_peer[81]  lookupTimeSig:vector  ETV
vector 556141  Network.dyn_peer[70]  lookupHopsSig:vector  ETV
vector 556140  Network.dyn_peer[70]  lookupTimeSig:vector  ETV
vector 556169  Network.dyn_peer[84]  lookupHopsSig:vector  ETV
vector 556168  Network.dyn_peer[84]  lookupTimeSig:vector  ETV
vector 556145  Network.dyn_peer[72]  lookupHopsSig:vector  ETV
vector 556144  Network.dyn_peer[72]  lookupTimeSig:vector  ETV
vector 556185  Network.dyn_peer[92]  lookupHopsSig:vector  ETV
vector 556184  Network.dyn_peer[92]  lookupTimeSig:vector  ETV
vector 556187  Network.dyn_peer[93]  lookupHopsSig:vector  ETV
vector 556186  Network.dyn_peer[93]  lookupTimeSig:vector  ETV
vector 556189  Network.dyn_peer[94]  lookupHopsSig:vector  ETV
vector 556188  Network.dyn_peer[94]  lookupTimeSig:vector  ETV
vector 556165  Network.dyn_peer[82]  lookupHopsSig:vector  ETV
vector 556164  Network.dyn_peer[82]  lookupTimeSig:vector  ETV
vector 556179  Network.dyn_peer[89]  lookupHopsSig:vector  ETV
vector 556178  Network.dyn_peer[89]  lookupTimeSig:vector  ETV
vector 556105  Network.dyn_peer[52]  lookupHopsSig:vector  ETV
vector 556104  Network.dyn_peer[52]  lookupTimeSig:vector  ETV
vector 556095  Network.dyn_peer[47]  lookupHopsSig:vector  ETV
vector 556094  Network.dyn_peer[47]  lookupTimeSig:vector  ETV
vector 556201  Network.dyn_peer[100]  lookupHopsSig:vector  ETV
vector 556200  Network.dyn_peer[100]  lookupTimeSig:vector  ETV
vector 556177  Network.dyn_peer[88]  lookupHopsSig:vector  ETV
vector 556176  Network.dyn_peer[88]  lookupTimeSig:vector  ETV
vector 556205  Network.dyn_peer[102]  lookupHopsSig:vector  ETV
vector 556204  Network.dyn_peer[102]  lookupTimeSig:vector  ETV
vector 556193  Network.dyn_peer[96]  lookupHopsSig:vector  ETV
vector 556192  Network.dyn_peer[96]  lookupTimeSig:vector  ETV
vector 556131  Network.dyn_peer[65]  lookupHopsSig:vector  ETV
vector 556130  Network.dyn_peer[65]  lookupTimeSig:vector  ETV
vector 556113  Network.dyn_peer[56]  lookupHopsSig:vector  ETV
vector 556112  Network.dyn_peer[56]  lookupTimeSig:vector  ETV
vector 556217  Network.dyn_peer[108]  lookupHopsSig:vector  ETV
vector 556216  Network.dyn_peer[108]  lookupTimeSig:vector  ETV
vector 556211  Network.dyn_peer[105]  lookupHopsSig:vector  ETV
vector 556210  Network.dyn_peer[105]  lookupTimeSig:vector  ETV
vector 556175  Network.dyn_peer[87]  lookupHopsSig:vector  ETV
vector 556174  Network.dyn_peer[87]  lookupTimeSig:vector  ETV
vector 556239  Network.dyn_peer[119]  lookupHopsSig:vector  ETV
vector 556238  Network.dyn_peer[119]  lookupTimeSig:vector  ETV
vector 556203  Network.dyn_peer[101]  lookupHopsSig:vector  ETV
vector 556202  Network.dyn_peer[101]  lookupTimeSig:vector  ETV
vector 556153  Network.dyn_peer[76]  lookupHopsSig:vector  ETV
vector 556152  Network.dyn_peer[76]  lookupTimeSig:vector  ETV
vector 556167  Network.dyn_peer[83]  lookupHopsSig:vector  ETV
vector 556166  Network.dyn_peer[83]  lookupTimeSig:vector  ETV
vector 556233  Network.dyn_peer[116]  lookupHopsSig:vector  ETV
vector 556232  Network.dyn_peer[116]  lookupTimeSig:vector  ETV
vector 556209  Network.dyn_peer[104]  lookupHopsSig:vector  ETV
vector 556208  Network.dyn_peer[104]  lookupTimeSig:vector  ETV
vector 556171  Network.dyn_peer[85]  lookupHopsSig:vector  ETV
vector 556170  Network.dyn_peer[85]  lookupTimeSig:vector  ETV
vector 556125  Network.dyn_peer[62]  lookupHopsSig:vector  ETV
vector 556124  Network.dyn_peer[62]  lookupTimeSig:vector  ETV
vector 556191  Network.dyn_peer[95]  lookupHopsSig:vector  ETV
vector 556190  Network.dyn_peer[95]  lookupTimeSig:vector  ETV
vector 556183  Network.dyn_peer[91]  lookupHopsSig:vector  ETV
vector 556182  Network.dyn_peer[91]  lookupTimeSig:vector  ETV
vector 556159  Network.dyn_peer[79]  lookupHopsSig:vector  ETV
vector 556158  Network.dyn_peer[79]  lookupTimeSig:vector  ETV
vector 556223  Network.dyn_peer[111]  lookupHopsSig:vector  ETV
vector 556222  Network.dyn_peer[111]  lookupTimeSig:vector  ETV
vector 556147  Network.dyn_peer[73]  lookupHopsSig:vector  ETV
vector 556146  Network.dyn_peer[73]  lookupTimeSig:vector  ETV
vector 556135  Network.dyn_peer[67]  lookupHopsSig:vector  ETV
vector 556134  Network.dyn_peer[67]  lookupTimeSig:vector  ETV
vector 556229  Network.dyn_peer[114]  lookupHopsSig:vector  ETV
vector 556228  Network.dyn_peer[114]  lookupTimeSig:vector  ETV
vector 556219  Network.dyn_peer[109]  lookupHopsSig:vector  ETV
vector 556218  Network.dyn_peer[109]  lookupTimeSig:vector  ETV
vector 556157  Network.dyn_peer[78]  lookupHopsSig:vector  ETV
vector 556156  Network.dyn_peer[78]  lookupTimeSig:vector  ETV
vector 556149  Network.dyn_peer[74]  lookupHopsSig:vector  ETV
vector 556148  Network.dyn_peer[74]  lookupTimeSig:vector  ETV
vector 556253  Network.dyn_peer[126]  lookupHopsSig:vector  ETV
vector 556252  Network.dyn_peer[126]  lookupTimeSig:vector  ETV
vector 556151  Network.dyn_peer[75]  lookupHopsSig:vector  ETV
vector 556150  Network.dyn_peer[75]  lookupTimeSig:vector  ETV
vector 556215  Network.dyn_peer[107]  lookupHopsSig:vector  ETV
vector 556214  Network.dyn_peer[107]  lookupTimeSig:vector  ETV
vector 556117  Network.dyn_peer[58]  lookupHopsSig:vector  ETV
vector 556116  Network.dyn_peer[58]  lookupTimeSig:vector  ETV
vector 556245  Network.dyn_peer[122]  lookupHopsSig:vector  ETV
vector 556244  Network.dyn_peer[122]  lookupTimeSig:vector  ETV
vector 556195  Network.dyn_peer[97]  lookupHopsSig:vector  ETV
vector 556194  Network.dyn_peer[97]  lookupTimeSig:vector  ETV
vector 556235  Network.dyn_peer[117]  lookupHopsSig:vector  ETV
vector 556234  Network.dyn_peer[117]  lookupTimeSig:vector  ETV
vector 556197  Network.dyn_peer[98]  lookupHopsSig:vector  ETV
vector 556196  Network.dyn_peer[98]  lookupTimeSig:vector  ETV
vector 556199  Network.dyn_peer[99]  lookupHopsSig:vector  ETV
vector 556198  Network.dyn_peer[99]  lookupTimeSig:vector  ETV
vector 556251  Network.dyn_peer[125]  lookupHopsSig:vector  ETV
vector 556250  Network.dyn_peer[125]  lookupTimeSig:vector  ETV
vector 556227  Network.dyn_peer[113]  lookupHopsSig:vector  ETV
vector 556226  Network.dyn_peer[113]  lookupTimeSig:vector  ETV
vector 556173  Network.dyn_peer[86]  lookupHopsSig:vector  ETV
vector 556172  Network.dyn_peer[86]  lookupTimeSig:vector  ETV
vector 556231  Network.dyn_peer[115]  lookupHopsSig:vector  ETV
vector 556230  Network.dyn_peer[115]  lookupTimeSig:vector  ETV
vector 556277  Network.dyn_peer[138]  lookupHopsSig:vector  ETV
vector 556276  Network.dyn_peer[138]  lookupTimeSig:vector  ETV
vector 556303  Network.dyn_peer[151]  lookupHopsSig:vector  ETV
vector 556302  Network.dyn_peer[151]  lookupTimeSig:vector  ETV
vector 556265  Network.dyn_peer[132]  lookupHopsSig:vector  ETV
vector 556264  Network.dyn_peer[132]  lookupTimeSig:vector  ETV
vector 556275  Network.dyn_peer[137]  lookupHopsSig:vector  ETV
vector 556274  Network.dyn_peer[137]  lookupTimeSig:vector  ETV
vector 556339  Network.dyn_peer[169]  lookupHopsSig:vector  ETV
vector 556338  Network.dyn_peer[169]  lookupTimeSig:vector  ETV
vector 556237  Network.dyn_peer[118]  lookupHopsSig:vector  ETV
vector 556236  Network.dyn_peer[118]  lookupTimeSig:vector  ETV
vector 556241  Network.dyn_peer[120]  lookupHopsSig:vector  ETV
vector 556240  Network.dyn_peer[120]  lookupTimeSig:vector  ETV
vector 556305  Network.dyn_peer[152]  lookupHopsSig:vector  ETV
vector 556304  Network.dyn_peer[152]  lookupTimeSig:vector  ETV
vector 556293  Network.dyn_peer[146]  lookupHopsSig:vector  ETV
vector 556292  Network.dyn_peer[146]  lookupTimeSig:vector  ETV
vector 556257  Network.dyn_peer[128]  lookupHopsSig:vector  ETV
vector 556256  Network.dyn_peer[128]  lookupTimeSig:vector  ETV
vector 556181  Network.dyn_peer[90]  lookupHopsSig:vector  ETV
vector 556180  Network.dyn_peer[90]  lookupTimeSig:vector  ETV
vector 556259  Network.dyn_peer[129]  lookupHopsSig:vector  ETV
vector 556258  Network.dyn_peer[129]  lookupTimeSig:vector  ETV
vector 556247  Network.dyn_peer[123]  lookupHopsSig:vector  ETV
vector 556246  Network.dyn_peer[123]  lookupTimeSig:vector  ETV
vector 556267  Network.dyn_peer[133]  lookupHopsSig:vector  ETV
vector 556266  Network.dyn_peer[133]  lookupTimeSig:vector  ETV
vector 556255  Network.dyn_peer[127]  lookupHopsSig:vector  ETV
vector 556254  Network.dyn_peer[127]  lookupTimeSig:vector  ETV
vector 556295  Network.dyn_peer[147]  lookupHopsSig:vector  ETV
vector 556294  Network.dyn_peer[147]  lookupTimeSig:vector  ETV
vector 556299  Network.dyn_peer[149]  lookupHopsSig:vector  ETV
vector 556298  Network.dyn_peer[149]  lookupTimeSig:vector  ETV
vector 556341  Network.dyn_peer[170]  lookupHopsSig:vector  ETV
vector 556340  Network.dyn_peer[170]  lookupTimeSig:vector  ETV
vector 556317  Network.dyn_peer[158]  lookupHopsSig:vector  ETV
vector 556316  Network.dyn_peer[158]  lookupTimeSig:vector  ETV
vector 556343  Network.dyn_peer[171]  lookupHopsSig:vector  ETV
vector 556342  Network.dyn_peer[171]  lookupTimeSig:vector  ETV
vector 556269  Network.dyn_peer[134]  lookupHopsSig:vector  ETV
vector 556268  Network.dyn_peer[134]  lookupTimeSig:vector  ETV
vector 556285  Network.dyn_peer[142]  lookupHopsSig:vector  ETV
vector 556284  Network.dyn_peer[142]  lookupTimeSig:vector  ETV
vector 556261  Network.dyn_peer[130]  lookupHopsSig:vector  ETV
vector 556260  Network.dyn_peer[130]  lookupTimeSig:vector  ETV
vector 556249  Network.dyn_peer[124]  lookupHopsSig:vector  ETV
vector 556248  Network.dyn_peer[124]  lookupTimeSig:vector  ETV
vector 556289  Network.dyn_peer[144]  lookupHopsSig:vector  ETV
vector 556288  Network.dyn_peer[144]  lookupTimeSig:vector  ETV
vector 556291  Network.dyn_peer[145]  lookupHopsSig:vector  ETV
vector 556290  Network.dyn_peer[145]  lookupTimeSig:vector  ETV
vector 556355  Network.dyn_peer[177]  lookupHopsSig:vector  ETV
vector 556354  Network.dyn_peer[177]  lookupTimeSig:vector  ETV
vector 556279  Network.dyn_peer[139]  lookupHopsSig:vector  ETV
vector 556278  Network.dyn_peer[139]  lookupTimeSig:vector  ETV
vector 556319  Network.dyn_peer[159]  lookupHopsSig:vector  ETV
vector 556318  Network.dyn_peer[159]  lookupTimeSig:vector  ETV
vector 556333  Network.dyn_peer[166]  lookupHopsSig:vector  ETV
vector 556332  Network.dyn_peer[166]  lookupTimeSig:vector  ETV
vector 556385  Network.dyn_peer[192]  lookupHopsSig:vector  ETV
vector 556384  Network.dyn_peer[192]  lookupTimeSig:vector  ETV
vector 556271  Network.dyn_peer[135]  lookupHopsSig:vector  ETV
vector 556270  Network.dyn_peer[135]  lookupTimeSig:vector  ETV
vector 556297  Network.dyn_peer[148]  lookupHopsSig:vector  ETV
vector 556296  Network.dyn_peer[148]  lookupTimeSig:vector  ETV
vector 556311  Network.dyn_peer[155]  lookupHopsSig:vector  ETV
vector 556310  Network.dyn_peer[155]  lookupTimeSig:vector  ETV
vector 556273  Network.dyn_peer[136]  lookupHopsSig:vector  ETV
vector 556272  Network.dyn_peer[136]  lookupTimeSig:vector  ETV
vector 556337  Network.dyn_peer[168]  lookupHopsSig:vector  ETV
vector 556336  Network.dyn_peer[168]  lookupTimeSig:vector  ETV
vector 556301  Network.dyn_peer[150]  lookupHopsSig:vector  ETV
vector 556300  Network.dyn_peer[150]  lookupTimeSig:vector  ETV
vector 556263  Network.dyn_peer[131]  lookupHopsSig:vector  ETV
vector 556262  Network.dyn_peer[131]  lookupTimeSig:vector  ETV
vector 556225  Network.dyn_peer[112]  lookupHopsSig:vector  ETV
vector 556224  Network.dyn_peer[112]  lookupTimeSig:vector  ETV
vector 556353  Network.dyn_peer[176]  lookupHopsSig:vector  ETV
vector 556352  Network.dyn_peer[176]  lookupTimeSig:vector  ETV
vector 556207  Network.dyn_peer[103]  lookupHopsSig:vector  ETV
vector 556206  Network.dyn_peer[103]  lookupTimeSig:vector  ETV
vector 556349  Network.dyn_peer[174]  lookupHopsSig:vector  ETV
vector 556348  Network.dyn_peer[174]  lookupTimeSig:vector  ETV
vector 556327  Network.dyn_peer[163]  lookupHopsSig:vector  ETV
vector 556326  Network.dyn_peer[163]  lookupTimeSig:vector  ETV
vector 556281  Network.dyn_peer[140]  lookupHopsSig:vector  ETV
vector 556280  Network.dyn_peer[140]  lookupTimeSig:vector  ETV
vector 556309  Network.dyn_peer[154]  lookupHopsSig:vector  ETV
vector 556308  Network.dyn_peer[154]  lookupTimeSig:vector  ETV
vector 556357  Network.dyn_peer[178]  lookupHopsSig:vector  ETV
vector 556356  Network.dyn_peer[178]  lookupTimeSig:vector  ETV
vector 556243  Network.dyn_peer[121]  lookupHopsSig:vector  ETV
vector 556242  Network.dyn_peer[121]  lookupTimeSig:vector  ETV
vector 556423  Network.dyn_peer[211]  lookupHopsSig:vector  ETV
vector 556422  Network.dyn_peer[211]  lookupTimeSig:vector  ETV
vector 556321  Network.dyn_peer[160]  lookupHopsSig:vector  ETV
vector 556320  Network.dyn_peer[160]  lookupTimeSig:vector  ETV
vector 556221  Network.dyn_peer[110]  lookupHopsSig:vector  ETV
vector 556220  Network.dyn_peer[110]  lookupTimeSig:vector  ETV
vector 556287  Network.dyn_peer[143]  lookupHopsSig:vector  ETV
vector 556286  Network.dyn_peer[143]  lookupTimeSig:vector  ETV
vector 556315  Network.dyn_peer[157]  lookupHopsSig:vector  ETV
vector 556314  Network.dyn_peer[157]  lookupTimeSig:vector  ETV
vector 556329  Network.dyn_peer[164]  lookupHopsSig:vector  ETV
vector 556328  Network.dyn_peer[164]  lookupTimeSig:vector  ETV
vector 556383  Network.dyn_peer[191]  lookupHopsSig:vector  ETV
vector 556382  Network.dyn_peer[191]  lookupTimeSig:vector  ETV
vector 556345  Network.dyn_peer[172]  lookupHopsSig:vector  ETV
vector 556344  Network.dyn_peer[172]  lookupTimeSig:vector  ETV
vector 556307  Network.dyn_peer[153]  lookupHopsSig:vector  ETV
vector 556306  Network.dyn_peer[153]  lookupTimeSig:vector  ETV
vector 556213  Network.dyn_peer[106]  lookupHopsSig:vector  ETV
vector 556212  Network.dyn_peer[106]  lookupTimeSig:vector  ETV
vector 556395  Network.dyn_peer[197]  lookupHopsSig:vector  ETV
vector 556394  Network.dyn_peer[197]  lookupTimeSig:vector  ETV
vector 556397  Network.dyn_peer[198]  lookupHopsSig:vector  ETV
vector 556396  Network.dyn_peer[198]  lookupTimeSig:vector  ETV
vector 556361  Network.dyn_peer[180]  lookupHopsSig:vector  ETV
vector 556360  Network.dyn_peer[180]  lookupTimeSig:vector  ETV
vector 556387  Network.dyn_peer[193]  lookupHopsSig:vector  ETV
vector 556386  Network.dyn_peer[193]  lookupTimeSig:vector  ETV
vector 556375  Network.dyn_peer[187]  lookupHopsSig:vector  ETV
vector 556374  Network.dyn_peer[187]  lookupTimeSig:vector  ETV
vector 556325  Network.dyn_peer[162]  lookupHopsSig:vector  ETV
vector 556324  Network.dyn_peer[162]  lookupTimeSig:vector  ETV
vector 556351  Network.dyn_peer[175]  lookupHopsSig:vector  ETV
vector 556350  Network.dyn_peer[175]  lookupTimeSig:vector  ETV
vector 556417  Network.dyn_peer[208]  lookupHopsSig:vector  ETV
vector 556416  Network.dyn_peer[208]  lookupTimeSig:vector  ETV
vector 556379  Network.dyn_peer[189]  lookupHopsSig:vector  ETV
vector 556378  Network.dyn_peer[189]  lookupTimeSig:vector  ETV
vector 556331  Network.dyn_peer[165]  lookupHopsSig:vector  ETV
vector 556330  Network.dyn_peer[165]  lookupTimeSig:vector  ETV
vector 556347  Network.dyn_peer[173]  lookupHopsSig:vector  ETV
vector 556346  Network.dyn_peer[173]  lookupTimeSig:vector  ETV
vector 556363  Network.dyn_peer[181]  lookupHopsSig:vector  ETV
vector 556362  Network.dyn_peer[181]  lookupTimeSig:vector  ETV
vector 556369  Network.dyn_peer[184]  lookupHopsSig:vector  ETV
vector 556368  Network.dyn_peer[184]  lookupTimeSig:vector  ETV
vector 556371  Network.dyn_peer[185]  lookupHopsSig:vector  ETV
vector 556370  Network.dyn_peer[185]  lookupTimeSig:vector  ETV
vector 556283  Network.dyn_peer[141]  lookupHopsSig:vector  ETV
vector 556282  Network.dyn_peer[141]  lookupTimeSig:vector  ETV
vector 556335  Network.dyn_peer[167]  lookupHopsSig:vector  ETV
vector 556334  Network.dyn_peer[167]  lookupTimeSig:vector  ETV
vector 556313  Network.dyn_peer[156]  lookupHopsSig:vector  ETV
vector 556312  Network.dyn_peer[156]  lookupTimeSig:vector  ETV
vector 556367  Network.dyn_peer[183]  lookupHopsSig:vector  ETV
vector 556366  Network.dyn_peer[183]  lookupTimeSig:vector  ETV
vector 556431  Network.dyn_peer[215]  lookupHopsSig:vector  ETV
vector 556430  Network.dyn_peer[215]  lookupTimeSig:vector  ETV
vector 556451  Network.dyn_peer[225]  lookupHopsSig:vector  ETV
vector 556450  Network.dyn_peer[225]  lookupTimeSig:vector  ETV
vector 556441  Network.dyn_peer[220]  lookupHopsSig:vector  ETV
vector 556440  Network.dyn_peer[220]  lookupTimeSig:vector  ETV
vector 556365  Network.dyn_peer[182]  lookupHopsSig:vector  ETV
vector 556364  Network.dyn_peer[182]  lookupTimeSig:vector  ETV
vector 556455  Network.dyn_peer[227]  lookupHopsSig:vector  ETV
vector 556454  Network.dyn_peer[227]  lookupTimeSig:vector  ETV
vector 556407  Network.dyn_peer[203]  lookupHopsSig:vector  ETV
vector 556406  Network.dyn_peer[203]  lookupTimeSig:vector  ETV
vector 556449  Network.dyn_peer[224]  lookupHopsSig:vector  ETV
vector 556448  Network.dyn_peer[224]  lookupTimeSig:vector  ETV
vector 556399  Network.dyn_peer[199]  lookupHopsSig:vector  ETV
vector 556398  Network.dyn_peer[199]  lookupTimeSig:vector  ETV
vector 556389  Network.dyn_peer[194]  lookupHopsSig:vector  ETV
vector 556388  Network.dyn_peer[194]  lookupTimeSig:vector  ETV
vector 556429  Network.dyn_peer[214]  lookupHopsSig:vector  ETV
vector 556428  Network.dyn_peer[214]  lookupTimeSig:vector  ETV
vector 556413  Network.dyn_peer[206]  lookupHopsSig:vector  ETV
vector 556412  Network.dyn_peer[206]  lookupTimeSig:vector  ETV
vector 556439  Network.dyn_peer[219]  lookupHopsSig:vector  ETV
vector 556438  Network.dyn_peer[219]  lookupTimeSig:vector  ETV
vector 556405  Network.dyn_peer[202]  lookupHopsSig:vector  ETV
vector 556404  Network.dyn_peer[202]  lookupTimeSig:vector  ETV
vector 556381  Network.dyn_peer[190]  lookupHopsSig:vector  ETV
vector 556380  Network.dyn_peer[190]  lookupTimeSig:vector  ETV
vector 556323  Network.dyn_peer[161]  lookupHopsSig:vector  ETV
vector 556322  Network.dyn_peer[161]  lookupTimeSig:vector  ETV
vector 556401  Network.dyn_peer[200]  lookupHopsSig:vector  ETV
vector 556400  Network.dyn_peer[200]  lookupTimeSig:vector  ETV
vector 556427  Network.dyn_peer[213]  lookupHopsSig:vector  ETV
vector 556426  Network.dyn_peer[213]  lookupTimeSig:vector  ETV
vector 556443  Network.dyn_peer[221]  lookupHopsSig:vector  ETV
vector 556442  Network.dyn_peer[221]  lookupTimeSig:vector  ETV
vector 556483  Network.dyn_peer[241]  lookupHopsSig:vector  ETV
vector 556482  Network.dyn_peer[241]  lookupTimeSig:vector  ETV
vector 556433  Network.dyn_peer[216]  lookupHopsSig:vector  ETV
vector 556432  Network.dyn_peer[216]  lookupTimeSig:vector  ETV
vector 556485  Network.dyn_peer[242]  lookupHopsSig:vector  ETV
vector 556484  Network.dyn_peer[242]  lookupTimeSig:vector  ETV
vector 556409  Network.dyn_peer[204]  lookupHopsSig:vector  ETV
vector 556408  Network.dyn_peer[204]  lookupTimeSig:vector  ETV
vector 556435  Network.dyn_peer[217]  lookupHopsSig:vector  ETV
vector 556434  Network.dyn_peer[217]  lookupTimeSig:vector  ETV
vector 556475  Network.dyn_peer[237]  lookupHopsSig:vector  ETV
vector 556474  Network.dyn_peer[237]  lookupTimeSig:vector  ETV
vector 556465  Network.dyn_peer[232]  lookupHopsSig:vector  ETV
vector 556464  Network.dyn_peer[232]  lookupTimeSig:vector  ETV
vector 556415  Network.dyn_peer[207]  lookupHopsSig:vector  ETV
vector 556414  Network.dyn_peer[207]  lookupTimeSig:vector  ETV
vector 556425  Network.dyn_peer[212]  lookupHopsSig:vector  ETV
vector 556424  Network.dyn_peer[212]  lookupTimeSig:vector  ETV
vector 556503  Network.dyn_peer[251]  lookupHopsSig:vector  ETV
vector 556502  Network.dyn_peer[251]  lookupTimeSig:vector  ETV
vector 556505  Network.dyn_peer[252]  lookupHopsSig:vector  ETV
vector 556504  Network.dyn_peer[252]  lookupTimeSig:vector  ETV
vector 556533  Network.dyn_peer[266]  lookupHopsSig:vector  ETV
vector 556532  Network.dyn_peer[266]  lookupTimeSig:vector  ETV
vector 556419  Network.dyn_peer[209]  lookupHopsSig:vector  ETV
vector 556418  Network.dyn_peer[209]  lookupTimeSig:vector  ETV
vector 556471  Network.dyn_peer[235]  lookupHopsSig:vector  ETV
vector 556470  Network.dyn_peer[235]  lookupTimeSig:vector  ETV
vector 556497  Network.dyn_peer[248]  lookupHopsSig:vector  ETV
vector 556496  Network.dyn_peer[248]  lookupTimeSig:vector  ETV
vector 556421  Network.dyn_peer[210]  lookupHopsSig:vector  ETV
vector 556420  Network.dyn_peer[210]  lookupTimeSig:vector  ETV
vector 556525  Network.dyn_peer[262]  lookupHopsSig:vector  ETV
vector 556524  Network.dyn_peer[262]  lookupTimeSig:vector  ETV
vector 556411  Network.dyn_peer[205]  lookupHopsSig:vector  ETV
vector 556410  Network.dyn_peer[205]  lookupTimeSig:vector  ETV
vector 556437  Network.dyn_peer[218]  lookupHopsSig:vector  ETV
vector 556436  Network.dyn_peer[218]  lookupTimeSig:vector  ETV
vector 556541  Network.dyn_peer[270]  lookupHopsSig:vector  ETV
vector 556540  Network.dyn_peer[270]  lookupTimeSig:vector  ETV
vector 556517  Network.dyn_peer[258]  lookupHopsSig:vector  ETV
vector 556516  Network.dyn_peer[258]  lookupTimeSig:vector  ETV
vector 556523  Network.dyn_peer[261]  lookupHopsSig:vector  ETV
vector 556522  Network.dyn_peer[261]  lookupTimeSig:vector  ETV