version 2
run Stability-7-20130521-22:20:21-23591
attr configname Stability
attr datetime 20130521-22:20:21
attr experiment Stability
attr inifile omnetpp.ini
attr iterationvars $0=8
attr iterationvars2 "$0=8, $repetition=7"
attr measurement $0=8
attr network Network
attr processid 23591
attr repetition 7
attr replication #7
attr resultdir results
attr runnumber 7
attr seedset 7

vector 14001  Network.dyn_peer[0]  lookupHopsSig:vector  ETV
vector 14000  Network.dyn_peer[0]  lookupTimeSig:vector  ETV
vector 14003  Network.dyn_peer[1]  lookupHopsSig:vector  ETV
vector 14002  Network.dyn_peer[1]  lookupTimeSig:vector  ETV
vector 14005  Network.dyn_peer[2]  lookupHopsSig:vector  ETV
vector 14004  Network.dyn_peer[2]  lookupTimeSig:vector  ETV
vector 14007  Network.dyn_peer[3]  lookupHopsSig:vector  ETV
vector 14006  Network.dyn_peer[3]  lookupTimeSig:vector  ETV
vector 14009  Network.dyn_peer[4]  lookupHopsSig:vector  ETV
vector 14008  Network.dyn_peer[4]  lookupTimeSig:vector  ETV
vector 14011  Network.dyn_peer[5]  lookupHopsSig:vector  ETV
vector 14010  Network.dyn_peer[5]  lookupTimeSig:vector  ETV
vector 14013  Network.dyn_peer[6]  lookupHopsSig:vector  ETV
vector 14012  Network.dyn_peer[6]  lookupTimeSig:vector  ETV
vector 14015  Network.dyn_peer[7]  lookupHopsSig:vector  ETV
vector 14014  Network.dyn_peer[7]  lookupTimeSig:vector  ETV
vector 14017  Network.dyn_peer[8]  lookupHopsSig:vector  ETV
vector 14016  Network.dyn_peer[8]  lookupTimeSig:vector  ETV
vector 14019  Network.dyn_peer[9]  lookupHopsSig:vector  ETV
vector 14018  Network.dyn_peer[9]  lookupTimeSig:vector  ETV
vector 14021  Network.dyn_peer[10]  lookupHopsSig:vector  ETV
vector 14020  Network.dyn_peer[10]  lookupTimeSig:vector  ETV
vector 14023  Network.dyn_peer[11]  lookupHopsSig:vector  ETV
vector 14022  Network.dyn_peer[11]  lookupTimeSig:vector  ETV
vector 14025  Network.dyn_peer[12]  lookupHopsSig:vector  ETV
vector 14024  Network.dyn_peer[12]  lookupTimeSig:vector  ETV
vector 14027  Network.dyn_peer[13]  lookupHopsSig:vector  ETV
vector 14026  Network.dyn_peer[13]  lookupTimeSig:vector  ETV
vector 14029  Network.dyn_peer[14]  lookupHopsSig:vector  ETV
vector 14028  Network.dyn_peer[14]  lookupTimeSig:vector  ETV
vector 14031  Network.dyn_peer[15]  lookupHopsSig:vector  ETV
vector 14030  Network.dyn_peer[15]  lookupTimeSig:vector  ETV
vector 14033  Network.dyn_peer[16]  lookupHopsSig:vector  ETV
vector 14032  Network.dyn_peer[16]  lookupTimeSig:vector  ETV
vector 14035  Network.dyn_peer[17]  lookupHopsSig:vector  ETV
vector 14034  Network.dyn_peer[17]  lookupTimeSig:vector  ETV
vector 14037  Network.dyn_peer[18]  lookupHopsSig:vector  ETV
vector 14036  Network.dyn_peer[18]  lookupTimeSig:vector  ETV
vector 14039  Network.dyn_peer[19]  lookupHopsSig:vector  ETV
vector 14038  Network.dyn_peer[19]  lookupTimeSig:vector  ETV
vector 14041  Network.dyn_peer[20]  lookupHopsSig:vector  ETV
vector 14040  Network.dyn_peer[20]  lookupTimeSig:vector  ETV
vector 14043  Network.dyn_peer[21]  lookupHopsSig:vector  ETV
vector 14042  Network.dyn_peer[21]  lookupTimeSig:vector  ETV
vector 14045  Network.dyn_peer[22]  lookupHopsSig:vector  ETV
vector 14044  Network.dyn_peer[22]  lookupTimeSig:vector  ETV
vector 14047  Network.dyn_peer[23]  lookupHopsSig:vector  ETV
vector 14046  Network.dyn_peer[23]  lookupTimeSig:vector  ETV
vector 14049  Network.dyn_peer[24]  lookupHopsSig:vector  ETV
vector 14048  Network.dyn_peer[24]  lookupTimeSig:vector  ETV
vector 14051  Network.dyn_peer[25]  lookupHopsSig:vector  ETV
vector 14050  Network.dyn_peer[25]  lookupTimeSig:vector  ETV
vector 14053  Network.dyn_peer[26]  lookupHopsSig:vector  ETV
vector 14052  Network.dyn_peer[26]  lookupTimeSig:vector  ETV
vector 14055  Network.dyn_peer[27]  lookupHopsSig:vector  ETV
vector 14054  Network.dyn_peer[27]  lookupTimeSig:vector  ETV
vector 14057  Network.dyn_peer[28]  lookupHopsSig:vector  ETV
vector 14056  Network.dyn_peer[28]  lookupTimeSig:vector  ETV
vector 14059  Network.dyn_peer[29]  lookupHopsSig:vector  ETV
vector 14058  Network.dyn_peer[29]  lookupTimeSig:vector  ETV
vector 14061  Network.dyn_peer[30]  lookupHopsSig:vector  ETV
vector 14060  Network.dyn_peer[30]  lookupTimeSig:vector  ETV
vector 14063  Network.dyn_peer[31]  lookupHopsSig:vector  ETV
vector 14062  Network.dyn_peer[31]  lookupTimeSig:vector  ETV
vector 14065  Network.dyn_peer[32]  lookupHopsSig:vector  ETV
vector 14064  Network.dyn_peer[32]  lookupTimeSig:vector  ETV
vector 14067  Network.dyn_peer[33]  lookupHopsSig:vector  ETV
vector 14066  Network.dyn_peer[33]  lookupTimeSig:vector  ETV
vector 14069  Network.dyn_peer[34]  lookupHopsSig:vector  ETV
vector 14068  Network.dyn_peer[34]  lookupTimeSig:vector  ETV
vector 14071  Network.dyn_peer[35]  lookupHopsSig:vector  ETV
vector 14070  Network.dyn_peer[35]  lookupTimeSig:vector  ETV
vector 14073  Network.dyn_peer[36]  lookupHopsSig:vector  ETV
vector 14072  Network.dyn_peer[36]  lookupTimeSig:vector  ETV
vector 14075  Network.dyn_peer[37]  lookupHopsSig:vector  ETV
vector 14074  Network.dyn_peer[37]  lookupTimeSig:vector  ETV
vector 14077  Network.dyn_peer[38]  lookupHopsSig:vector  ETV
vector 14076  Network.dyn_peer[38]  lookupTimeSig:vector  ETV
vector 14079  Network.dyn_peer[39]  lookupHopsSig:vector  ETV
vector 14078  Network.dyn_peer[39]  lookupTimeSig:vector  ETV
vector 14081  Network.dyn_peer[40]  lookupHopsSig:vector  ETV
vector 14080  Network.dyn_peer[40]  lookupTimeSig:vector  ETV
vector 14083  Network.dyn_peer[41]  lookupHopsSig:vector  ETV
vector 14082  Network.dyn_peer[41]  lookupTimeSig:vector  ETV
vector 14085  Network.dyn_peer[42]  lookupHopsSig:vector  ETV
vector 14084  Network.dyn_peer[42]  lookupTimeSig:vector  ETV
vector 14087  Network.dyn_peer[43]  lookupHopsSig:vector  ETV
vector 14086  Network.dyn_peer[43]  lookupTimeSig:vector  ETV
vector 14089  Network.dyn_peer[44]  lookupHopsSig:vector  ETV
vector 14088  Network.dyn_peer[44]  lookupTimeSig:vector  ETV
vector 14091  Network.dyn_peer[45]  lookupHopsSig:vector  ETV
vector 14090  Network.dyn_peer[45]  lookupTimeSig:vector  ETV
vector 14093  Network.dyn_peer[46]  lookupHopsSig:vector  ETV
vector 14092  Network.dyn_peer[46]  lookupTimeSig:vector  ETV
vector 14095  Network.dyn_peer[47]  lookupHopsSig:vector  ETV
vector 14094  Network.dyn_peer[47]  lookupTimeSig:vector  ETV
vector 14097  Network.dyn_peer[48]  lookupHopsSig:vector  ETV
vector 14096  Network.dyn_peer[48]  lookupTimeSig:vector  ETV
vector 14099  Network.dyn_peer[49]  lookupHopsSig:vector  ETV
vector 14098  Network.dyn_peer[49]  lookupTimeSig:vector  ETV
vector 14101  Network.dyn_peer[50]  lookupHopsSig:vector  ETV
vector 14100  Network.dyn_peer[50]  lookupTimeSig:vector  ETV
vector 14103  Network.dyn_peer[51]  lookupHopsSig:vector  ETV
vector 14102  Network.dyn_peer[51]  lookupTimeSig:vector  ETV
vector 14105  Network.dyn_peer[52]  lookupHopsSig:vector  ETV
vector 14104  Network.dyn_peer[52]  lookupTimeSig:vector  ETV
vector 14107  Network.dyn_peer[53]  lookupHopsSig:vector  ETV
vector 14106  Network.dyn_peer[53]  lookupTimeSig:vector  ETV
vector 14109  Network.dyn_peer[54]  lookupHopsSig:vector  ETV
vector 14108  Network.dyn_peer[54]  lookupTimeSig:vector  ETV
vector 14111  Network.dyn_peer[55]  lookupHopsSig:vector  ETV
vector 14110  Network.dyn_peer[55]  lookupTimeSig:vector  ETV
vector 14113  Network.dyn_peer[56]  lookupHopsSig:vector  ETV
vector 14112  Network.dyn_peer[56]  lookupTimeSig:vector  ETV
vector 14115  Network.dyn_peer[57]  lookupHopsSig:vector  ETV
vector 14114  Network.dyn_peer[57]  lookupTimeSig:vector  ETV
vector 14117  Network.dyn_peer[58]  lookupHopsSig:vector  ETV
vector 14116  Network.dyn_peer[58]  lookupTimeSig:vector  ETV
vector 14119  Network.dyn_peer[59]  lookupHopsSig:vector  ETV
vector 14118  Network.dyn_peer[59]  lookupTimeSig:vector  ETV
vector 14121  Network.dyn_peer[60]  lookupHopsSig:vector  ETV
vector 14120  Network.dyn_peer[60]  lookupTimeSig:vector  ETV
vector 14123  Network.dyn_peer[61]  lookupHopsSig:vector  ETV
vector 14122  Network.dyn_peer[61]  lookupTimeSig:vector  ETV
vector 14125  Network.dyn_peer[62]  lookupHopsSig:vector  ETV
vector 14124  Network.dyn_peer[62]  lookupTimeSig:vector  ETV
vector 14127  Network.dyn_peer[63]  lookupHopsSig:vector  ETV
vector 14126  Network.dyn_peer[63]  lookupTimeSig:vector  ETV
vector 14129  Network.dyn_peer[64]  lookupHopsSig:vector  ETV
vector 14128  Network.dyn_peer[64]  lookupTimeSig:vector  ETV
vector 14131  Network.dyn_peer[65]  lookupHopsSig:vector  ETV
vector 14130  Network.dyn_peer[65]  lookupTimeSig:vector  ETV
vector 14133  Network.dyn_peer[66]  lookupHopsSig:vector  ETV
vector 14132  Network.dyn_peer[66]  lookupTimeSig:vector  ETV
vector 14135  Network.dyn_peer[67]  lookupHopsSig:vector  ETV
vector 14134  Network.dyn_peer[67]  lookupTimeSig:vector  ETV
vector 14137  Network.dyn_peer[68]  lookupHopsSig:vector  ETV
vector 14136  Network.dyn_peer[68]  lookupTimeSig:vector  ETV
vector 14139  Network.dyn_peer[69]  lookupHopsSig:vector  ETV
vector 14138  Network.dyn_peer[69]  lookupTimeSig:vector  ETV
vector 14141  Network.dyn_peer[70]  lookupHopsSig:vector  ETV
vector 14140  Network.dyn_peer[70]  lookupTimeSig:vector  ETV
vector 14143  Network.dyn_peer[71]  lookupHopsSig:vector  ETV
vector 14142  Network.dyn_peer[71]  lookupTimeSig:vector  ETV
vector 14145  Network.dyn_peer[72]  lookupHopsSig:vector  ETV
vector 14144  Network.dyn_peer[72]  lookupTimeSig:vector  ETV
vector 14147  Network.dyn_peer[73]  lookupHopsSig:vector  ETV
vector 14146  Network.dyn_peer[73]  lookupTimeSig:vector  ETV
vector 14149  Network.dyn_peer[74]  lookupHopsSig:vector  ETV
vector 14148  Network.dyn_peer[74]  lookupTimeSig:vector  ETV
vector 14151  Network.dyn_peer[75]  lookupHopsSig:vector  ETV
vector 14150  Network.dyn_peer[75]  lookupTimeSig:vector  ETV
vector 14153  Network.dyn_peer[76]  lookupHopsSig:vector  ETV
vector 14152  Network.dyn_peer[76]  lookupTimeSig:vector  ETV
vector 14155  Network.dyn_peer[77]  lookupHopsSig:vector  ETV
vector 14154  Network.dyn_peer[77]  lookupTimeSig:vector  ETV
vector 14157  Network.dyn_peer[78]  lookupHopsSig:vector  ETV
vector 14156  Network.dyn_peer[78]  lookupTimeSig:vector  ETV
vector 14159  Network.dyn_peer[79]  lookupHopsSig:vector  ETV
vector 14158  Network.dyn_peer[79]  lookupTimeSig:vector  ETV
vector 14161  Network.dyn_peer[80]  lookupHopsSig:vector  ETV
vector 14160  Network.dyn_peer[80]  lookupTimeSig:vector  ETV
vector 14163  Network.dyn_peer[81]  lookupHopsSig:vector  ETV
vector 14162  Network.dyn_peer[81]  lookupTimeSig:vector  ETV
vector 14165  Network.dyn_peer[82]  lookupHopsSig:vector  ETV
vector 14164  Network.dyn_peer[82]  lookupTimeSig:vector  ETV
vector 14167  Network.dyn_peer[83]  lookupHopsSig:vector  ETV
vector 14166  Network.dyn_peer[83]  lookupTimeSig:vector  ETV
vector 14169  Network.dyn_peer[84]  lookupHopsSig:vector  ETV
vector 14168  Network.dyn_peer[84]  lookupTimeSig:vector  ETV
vector 14171  Network.dyn_peer[85]  lookupHopsSig:vector  ETV
vector 14170  Network.dyn_peer[85]  lookupTimeSig:vector  ETV
vector 14173  Network.dyn_peer[86]  lookupHopsSig:vector  ETV
vector 14172  Network.dyn_peer[86]  lookupTimeSig:vector  ETV
vector 14175  Network.dyn_peer[87]  lookupHopsSig:vector  ETV
vector 14174  Network.dyn_peer[87]  lookupTimeSig:vector  ETV
vector 14177  Network.dyn_peer[88]  lookupHopsSig:vector  ETV
vector 14176  Network.dyn_peer[88]  lookupTimeSig:vector  ETV
vector 14179  Network.dyn_peer[89]  lookupHopsSig:vector  ETV
vector 14178  Network.dyn_peer[89]  lookupTimeSig:vector  ETV
vector 14181  Network.dyn_peer[90]  lookupHopsSig:vector  ETV
vector 14180  Network.dyn_peer[90]  lookupTimeSig:vector  ETV
vector 14183  Network.dyn_peer[91]  lookupHopsSig:vector  ETV
vector 14182  Network.dyn_peer[91]  lookupTimeSig:vector  ETV
vector 14185  Network.dyn_peer[92]  lookupHopsSig:vector  ETV
vector 14184  Network.dyn_peer[92]  lookupTimeSig:vector  ETV
vector 14187  Network.dyn_peer[93]  lookupHopsSig:vector  ETV
vector 14186  Network.dyn_peer[93]  lookupTimeSig:vector  ETV
vector 14189  Network.dyn_peer[94]  lookupHopsSig:vector  ETV
vector 14188  Network.dyn_peer[94]  lookupTimeSig:vector  ETV
vector 14191  Network.dyn_peer[95]  lookupHopsSig:vector  ETV
vector 14190  Network.dyn_peer[95]  lookupTimeSig:vector  ETV
vector 14193  Network.dyn_peer[96]  lookupHopsSig:vector  ETV
vector 14192  Network.dyn_peer[96]  lookupTimeSig:vector  ETV
vector 14195  Network.dyn_peer[97]  lookupHopsSig:vector  ETV
vector 14194  Network.dyn_peer[97]  lookupTimeSig:vector  ETV
vector 14197  Network.dyn_peer[98]  lookupHopsSig:vector  ETV
vector 14196  Network.dyn_peer[98]  lookupTimeSig:vector  ETV
vector 14199  Network.dyn_peer[99]  lookupHopsSig:vector  ETV
vector 14198  Network.dyn_peer[99]  lookupTimeSig:vector  ETV
vector 14201  Network.dyn_peer[100]  lookupHopsSig:vector  ETV
vector 14200  Network.dyn_peer[100]  lookupTimeSig:vector  ETV
vector 14203  Network.dyn_peer[101]  lookupHopsSig:vector  ETV
vector 14202  Network.dyn_peer[101]  lookupTimeSig:vector  ETV
vector 14205  Network.dyn_peer[102]  lookupHopsSig:vector  ETV
vector 14204  Network.dyn_peer[102]  lookupTimeSig:vector  ETV
vector 14207  Network.dyn_peer[103]  lookupHopsSig:vector  ETV
vector 14206  Network.dyn_peer[103]  lookupTimeSig:vector  ETV
vector 14209  Network.dyn_peer[104]  lookupHopsSig:vector  ETV
vector 14208  Network.dyn_peer[104]  lookupTimeSig:vector  ETV
vector 14211  Network.dyn_peer[105]  lookupHopsSig:vector  ETV
vector 14210  Network.dyn_peer[105]  lookupTimeSig:vector  ETV
vector 14213  Network.dyn_peer[106]  lookupHopsSig:vector  ETV
vector 14212  Network.dyn_peer[106]  lookupTimeSig:vector  ETV
vector 14215  Network.dyn_peer[107]  lookupHopsSig:vector  ETV
vector 14214  Network.dyn_peer[107]  lookupTimeSig:vector  ETV
vector 14217  Network.dyn_peer[108]  lookupHopsSig:vector  ETV
vector 14216  Network.dyn_peer[108]  lookupTimeSig:vector  ETV
vector 14219  Network.dyn_peer[109]  lookupHopsSig:vector  ETV
vector 14218  Network.dyn_peer[109]  lookupTimeSig:vector  ETV
vector 14221  Network.dyn_peer[110]  lookupHopsSig:vector  ETV
vector 14220  Network.dyn_peer[110]  lookupTimeSig:vector  ETV
vector 14223  Network.dyn_peer[111]  lookupHopsSig:vector  ETV
vector 14222  Network.dyn_peer[111]  lookupTimeSig:vector  ETV
vector 14225  Network.dyn_peer[112]  lookupHopsSig:vector  ETV
vector 14224  Network.dyn_peer[112]  lookupTimeSig:vector  ETV
vector 14227  Network.dyn_peer[113]  lookupHopsSig:vector  ETV
vector 14226  Network.dyn_peer[113]  lookupTimeSig:vector  ETV
vector 14229  Network.dyn_peer[114]  lookupHopsSig:vector  ETV
vector 14228  Network.dyn_peer[114]  lookupTimeSig:vector  ETV
vector 14231  Network.dyn_peer[115]  lookupHopsSig:vector  ETV
vector 14230  Network.dyn_peer[115]  lookupTimeSig:vector  ETV
vector 14233  Network.dyn_peer[116]  lookupHopsSig:vector  ETV
vector 14232  Network.dyn_peer[116]  lookupTimeSig:vector  ETV
vector 14235  Network.dyn_peer[117]  lookupHopsSig:vector  ETV
vector 14234  Network.dyn_peer[117]  lookupTimeSig:vector  ETV
vector 14237  Network.dyn_peer[118]  lookupHopsSig:vector  ETV
vector 14236  Network.dyn_peer[118]  lookupTimeSig:vector  ETV
vector 14239  Network.dyn_peer[119]  lookupHopsSig:vector  ETV
vector 14238  Network.dyn_peer[119]  lookupTimeSig:vector  ETV
vector 14241  Network.dyn_peer[120]  lookupHopsSig:vector  ETV
vector 14240  Network.dyn_peer[120]  lookupTimeSig:vector  ETV
vector 14243  Network.dyn_peer[121]  lookupHopsSig:vector  ETV
vector 14242  Network.dyn_peer[121]  lookupTimeSig:vector  ETV
vector 14245  Network.dyn_peer[122]  lookupHopsSig:vector  ETV
vector 14244  Network.dyn_peer[122]  lookupTimeSig:vector  ETV
vector 14247  Network.dyn_peer[123]  lookupHopsSig:vector  ETV
vector 14246  Network.dyn_peer[123]  lookupTimeSig:vector  ETV
vector 14249  Network.dyn_peer[124]  lookupHopsSig:vector  ETV
vector 14248  Network.dyn_peer[124]  lookupTimeSig:vector  ETV
vector 14251  Network.dyn_peer[125]  lookupHopsSig:vector  ETV
vector 14250  Network.dyn_peer[125]  lookupTimeSig:vector  ETV
vector 14253  Network.dyn_peer[126]  lookupHopsSig:vector  ETV
vector 14252  Network.dyn_peer[126]  lookupTimeSig:vector  ETV
vector 14255  Network.dyn_peer[127]  lookupHopsSig:vector  ETV
vector 14254  Network.dyn_peer[127]  lookupTimeSig:vector  ETV
vector 14257  Network.dyn_peer[128]  lookupHopsSig:vector  ETV
vector 14256  Network.dyn_peer[128]  lookupTimeSig:vector  ETV
vector 14259  Network.dyn_peer[129]  lookupHopsSig:vector  ETV
vector 14258  Network.dyn_peer[129]  lookupTimeSig:vector  ETV
vector 14261  Network.dyn_peer[130]  lookupHopsSig:vector  ETV
vector 14260  Network.dyn_peer[130]  lookupTimeSig:vector  ETV
vector 14263  Network.dyn_peer[131]  lookupHopsSig:vector  ETV
vector 14262  Network.dyn_peer[131]  lookupTimeSig:vector  ETV
vector 14265  Network.dyn_peer[132]  lookupHopsSig:vector  ETV
vector 14264  Network.dyn_peer[132]  lookupTimeSig:vector  ETV
vector 14267  Network.dyn_peer[133]  lookupHopsSig:vector  ETV
vector 14266  Network.dyn_peer[133]  lookupTimeSig:vector  ETV
vector 14269  Network.dyn_peer[134]  lookupHopsSig:vector  ETV
vector 14268  Network.dyn_peer[134]  lookupTimeSig:vector  ETV
vector 14271  Network.dyn_peer[135]  lookupHopsSig:vector  ETV
vector 14270  Network.dyn_peer[135]  lookupTimeSig:vector  ETV
vector 14273  Network.dyn_peer[136]  lookupHopsSig:vector  ETV
vector 14272  Network.dyn_peer[136]  lookupTimeSig:vector  ETV
vector 14275  Network.dyn_peer[137]  lookupHopsSig:vector  ETV
vector 14274  Network.dyn_peer[137]  lookupTimeSig:vector  ETV
vector 14277  Network.dyn_peer[138]  lookupHopsSig:vector  ETV
vector 14276  Network.dyn_peer[138]  lookupTimeSig:vector  ETV
vector 14279  Network.dyn_peer[139]  lookupHopsSig:vector  ETV
vector 14278  Network.dyn_peer[139]  lookupTimeSig:vector  ETV
vector 14281  Network.dyn_peer[140]  lookupHopsSig:vector  ETV
vector 14280  Network.dyn_peer[140]  lookupTimeSig:vector  ETV
vector 14283  Network.dyn_peer[141]  lookupHopsSig:vector  ETV
vector 14282  Network.dyn_peer[141]  lookupTimeSig:vector  ETV
vector 14285  Network.dyn_peer[142]  lookupHopsSig:vector  ETV
vector 14284  Network.dyn_peer[142]  lookupTimeSig:vector  ETV
vector 14287  Network.dyn_peer[143]  lookupHopsSig:vector  ETV
vector 14286  Network.dyn_peer[143]  lookupTimeSig:vector  ETV
vector 14289  Network.dyn_peer[144]  lookupHopsSig:vector  ETV
vector 14288  Network.dyn_peer[144]  lookupTimeSig:vector  ETV
vector 14291  Network.dyn_peer[145]  lookupHopsSig:vector  ETV
vector 14290  Network.dyn_peer[145]  lookupTimeSig:vector  ETV
vector 14293  Network.dyn_peer[146]  lookupHopsSig:vector  ETV
vector 14292  Network.dyn_peer[146]  lookupTimeSig:vector  ETV
vector 14295  Network.dyn_peer[147]  lookupHopsSig:vector  ETV
vector 14294  Network.dyn_peer[147]  lookupTimeSig:vector  ETV
vector 14297  Network.dyn_peer[148]  lookupHopsSig:vector  ETV
vector 14296  Network.dyn_peer[148]  lookupTimeSig:vector  ETV
vector 14299  Network.dyn_peer[149]  lookupHopsSig:vector  ETV
vector 14298  Network.dyn_peer[149]  lookupTimeSig:vector  ETV
vector 14301  Network.dyn_peer[150]  lookupHopsSig:vector  ETV
vector 14300  Network.dyn_peer[150]  lookupTimeSig:vector  ETV
vector 14303  Network.dyn_peer[151]  lookupHopsSig:vector  ETV
vector 14302  Network.dyn_peer[151]  lookupTimeSig:vector  ETV
vector 14305  Network.dyn_peer[152]  lookupHopsSig:vector  ETV
vector 14304  Network.dyn_peer[152]  lookupTimeSig:vector  ETV
vector 14307  Network.dyn_peer[153]  lookupHopsSig:vector  ETV
vector 14306  Network.dyn_peer[153]  lookupTimeSig:vector  ETV
vector 14309  Network.dyn_peer[154]  lookupHopsSig:vector  ETV
vector 14308  Network.dyn_peer[154]  lookupTimeSig:vector  ETV
vector 14311  Network.dyn_peer[155]  lookupHopsSig:vector  ETV
vector 14310  Network.dyn_peer[155]  lookupTimeSig:vector  ETV
vector 14313  Network.dyn_peer[156]  lookupHopsSig:vector  ETV
vector 14312  Network.dyn_peer[156]  lookupTimeSig:vector  ETV
vector 14315  Network.dyn_peer[157]  lookupHopsSig:vector  ETV
vector 14314  Network.dyn_peer[157]  lookupTimeSig:vector  ETV
vector 14317  Network.dyn_peer[158]  lookupHopsSig:vector  ETV
vector 14316  Network.dyn_peer[158]  lookupTimeSig:vector  ETV
vector 14319  Network.dyn_peer[159]  lookupHopsSig:vector  ETV
vector 14318  Network.dyn_peer[159]  lookupTimeSig:vector  ETV
vector 14321  Network.dyn_peer[160]  lookupHopsSig:vector  ETV
vector 14320  Network.dyn_peer[160]  lookupTimeSig:vector  ETV
vector 14323  Network.dyn_peer[161]  lookupHopsSig:vector  ETV
vector 14322  Network.dyn_peer[161]  lookupTimeSig:vector  ETV
vector 14325  Network.dyn_peer[162]  lookupHopsSig:vector  ETV
vector 14324  Network.dyn_peer[162]  lookupTimeSig:vector  ETV
vector 14327  Network.dyn_peer[163]  lookupHopsSig:vector  ETV
vector 14326  Network.dyn_peer[163]  lookupTimeSig:vector  ETV
vector 14329  Network.dyn_peer[164]  lookupHopsSig:vector  ETV
vector 14328  Network.dyn_peer[164]  lookupTimeSig:vector  ETV
vector 14331  Network.dyn_peer[165]  lookupHopsSig:vector  ETV
vector 14330  Network.dyn_peer[165]  lookupTimeSig:vector  ETV
vector 14333  Network.dyn_peer[166]  lookupHopsSig:vector  ETV
vector 14332  Network.dyn_peer[166]  lookupTimeSig:vector  ETV
vector 14335  Network.dyn_peer[167]  lookupHopsSig:vector  ETV
vector 14334  Network.dyn_peer[167]  lookupTimeSig:vector  ETV
vector 14337  Network.dyn_peer[168]  lookupHopsSig:vector  ETV
vector 14336  Network.dyn_peer[168]  lookupTimeSig:vector  ETV
vector 14339  Network.dyn_peer[169]  lookupHopsSig:vector  ETV
vector 14338  Network.dyn_peer[169]  lookupTimeSig:vector  ETV
vector 14341  Network.dyn_peer[170]  lookupHopsSig:vector  ETV
vector 14340  Network.dyn_peer[170]  lookupTimeSig:vector  ETV
vector 14343  Network.dyn_peer[171]  lookupHopsSig:vector  ETV
vector 14342  Network.dyn_peer[171]  lookupTimeSig:vector  ETV
vector 14345  Network.dyn_peer[172]  lookupHopsSig:vector  ETV
vector 14344  Network.dyn_peer[172]  lookupTimeSig:vector  ETV
vector 14347  Network.dyn_peer[173]  lookupHopsSig:vector  ETV
vector 14346  Network.dyn_peer[173]  lookupTimeSig:vector  ETV
vector 14349  Network.dyn_peer[174]  lookupHopsSig:vector  ETV
vector 14348  Network.dyn_peer[174]  lookupTimeSig:vector  ETV
vector 14351  Network.dyn_peer[175]  lookupHopsSig:vector  ETV
vector 14350  Network.dyn_peer[175]  lookupTimeSig:vector  ETV
vector 14353  Network.dyn_peer[176]  lookupHopsSig:vector  ETV
vector 14352  Network.dyn_peer[176]  lookupTimeSig:vector  ETV
vector 14355  Network.dyn_peer[177]  lookupHopsSig:vector  ETV
vector 14354  Network.dyn_peer[177]  lookupTimeSig:vector  ETV
vector 14357  Network.dyn_peer[178]  lookupHopsSig:vector  ETV
vector 14356  Network.dyn_peer[178]  lookupTimeSig:vector  ETV
vector 14359  Network.dyn_peer[179]  lookupHopsSig:vector  ETV
vector 14358  Network.dyn_peer[179]  lookupTimeSig:vector  ETV
vector 14361  Network.dyn_peer[180]  lookupHopsSig:vector  ETV
vector 14360  Network.dyn_peer[180]  lookupTimeSig:vector  ETV
vector 14363  Network.dyn_peer[181]  lookupHopsSig:vector  ETV
vector 14362  Network.dyn_peer[181]  lookupTimeSig:vector  ETV
vector 14365  Network.dyn_peer[182]  lookupHopsSig:vector  ETV
vector 14364  Network.dyn_peer[182]  lookupTimeSig:vector  ETV
vector 14367  Network.dyn_peer[183]  lookupHopsSig:vector  ETV
vector 14366  Network.dyn_peer[183]  lookupTimeSig:vector  ETV
vector 14369  Network.dyn_peer[184]  lookupHopsSig:vector  ETV
vector 14368  Network.dyn_peer[184]  lookupTimeSig:vector  ETV
vector 14371  Network.dyn_peer[185]  lookupHopsSig:vector  ETV
vector 14370  Network.dyn_peer[185]  lookupTimeSig:vector  ETV
vector 14373  Network.dyn_peer[186]  lookupHopsSig:vector  ETV
vector 14372  Network.dyn_peer[186]  lookupTimeSig:vector  ETV
vector 14375  Network.dyn_peer[187]  lookupHopsSig:vector  ETV
vector 14374  Network.dyn_peer[187]  lookupTimeSig:vector  ETV
vector 14377  Network.dyn_peer[188]  lookupHopsSig:vector  ETV
vector 14376  Network.dyn_peer[188]  lookupTimeSig:vector  ETV
vector 14379  Network.dyn_peer[189]  lookupHopsSig:vector  ETV
vector 14378  Network.dyn_peer[189]  lookupTimeSig:vector  ETV
vector 14381  Network.dyn_peer[190]  lookupHopsSig:vector  ETV
vector 14380  Network.dyn_peer[190]  lookupTimeSig:vector  ETV
vector 14383  Network.dyn_peer[191]  lookupHopsSig:vector  ETV
vector 14382  Network.dyn_peer[191]  lookupTimeSig:vector  ETV
vector 14385  Network.dyn_peer[192]  lookupHopsSig:vector  ETV
vector 14384  Network.dyn_peer[192]  lookupTimeSig:vector  ETV
vector 14387  Network.dyn_peer[193]  lookupHopsSig:vector  ETV
vector 14386  Network.dyn_peer[193]  lookupTimeSig:vector  ETV
vector 14389  Network.dyn_peer[194]  lookupHopsSig:vector  ETV
vector 14388  Network.dyn_peer[194]  lookupTimeSig:vector  ETV
vector 14391  Network.dyn_peer[195]  lookupHopsSig:vector  ETV
vector 14390  Network.dyn_peer[195]  lookupTimeSig:vector  ETV
vector 14393  Network.dyn_peer[196]  lookupHopsSig:vector  ETV
vector 14392  Network.dyn_peer[196]  lookupTimeSig:vector  ETV
vector 14395  Network.dyn_peer[197]  lookupHopsSig:vector  ETV
vector 14394  Network.dyn_peer[197]  lookupTimeSig:vector  ETV
vector 14397  Network.dyn_peer[198]  lookupHopsSig:vector  ETV
vector 14396  Network.dyn_peer[198]  lookupTimeSig:vector  ETV
vector 14399  Network.dyn_peer[199]  lookupHopsSig:vector  ETV
vector 14398  Network.dyn_peer[199]  lookupTimeSig:vector  ETV
vector 14401  Network.dyn_peer[200]  lookupHopsSig:vector  ETV
vector 14400  Network.dyn_peer[200]  lookupTimeSig:vector  ETV
vector 14403  Network.dyn_peer[201]  lookupHopsSig:vector  ETV
vector 14402  Network.dyn_peer[201]  lookupTimeSig:vector  ETV
vector 14405  Network.dyn_peer[202]  lookupHopsSig:vector  ETV
vector 14404  Network.dyn_peer[202]  lookupTimeSig:vector  ETV
vector 14407  Network.dyn_peer[203]  lookupHopsSig:vector  ETV
vector 14406  Network.dyn_peer[203]  lookupTimeSig:vector  ETV
vector 14409  Network.dyn_peer[204]  lookupHopsSig:vector  ETV
vector 14408  Network.dyn_peer[204]  lookupTimeSig:vector  ETV
vector 14411  Network.dyn_peer[205]  lookupHopsSig:vector  ETV
vector 14410  Network.dyn_peer[205]  lookupTimeSig:vector  ETV
vector 14413  Network.dyn_peer[206]  lookupHopsSig:vector  ETV
vector 14412  Network.dyn_peer[206]  lookupTimeSig:vector  ETV
vector 14415  Network.dyn_peer[207]  lookupHopsSig:vector  ETV
vector 14414  Network.dyn_peer[207]  lookupTimeSig:vector  ETV
vector 14417  Network.dyn_peer[208]  lookupHopsSig:vector  ETV
vector 14416  Network.dyn_peer[208]  lookupTimeSig:vector  ETV
vector 14419  Network.dyn_peer[209]  lookupHopsSig:vector  ETV
vector 14418  Network.dyn_peer[209]  lookupTimeSig:vector  ETV
vector 14421  Network.dyn_peer[210]  lookupHopsSig:vector  ETV
vector 14420  Network.dyn_peer[210]  lookupTimeSig:vector  ETV
vector 14423  Network.dyn_peer[211]  lookupHopsSig:vector  ETV
vector 14422  Network.dyn_peer[211]  lookupTimeSig:vector  ETV
vector 14425  Network.dyn_peer[212]  lookupHopsSig:vector  ETV
vector 14424  Network.dyn_peer[212]  lookupTimeSig:vector  ETV
vector 14427  Network.dyn_peer[213]  lookupHopsSig:vector  ETV
vector 14426  Network.dyn_peer[213]  lookupTimeSig:vector  ETV
vector 14429  Network.dyn_peer[214]  lookupHopsSig:vector  ETV
vector 14428  Network.dyn_peer[214]  lookupTimeSig:vector  ETV
vector 14431  Network.dyn_peer[215]  lookupHopsSig:vector  ETV
vector 14430  Network.dyn_peer[215]  lookupTimeSig:vector  ETV
vector 14433  Network.dyn_peer[216]  lookupHopsSig:vector  ETV
vector 14432  Network.dyn_peer[216]  lookupTimeSig:vector  ETV
vector 14435  Network.dyn_peer[217]  lookupHopsSig:vector  ETV
vector 14434  Network.dyn_peer[217]  lookupTimeSig:vector  ETV
vector 14437  Network.dyn_peer[218]  lookupHopsSig:vector  ETV
vector 14436  Network.dyn_peer[218]  lookupTimeSig:vector  ETV
vector 14439  Network.dyn_peer[219]  lookupHopsSig:vector  ETV
vector 14438  Network.dyn_peer[219]  lookupTimeSig:vector  ETV
vector 14441  Network.dyn_peer[220]  lookupHopsSig:vector  ETV
vector 14440  Network.dyn_peer[220]  lookupTimeSig:vector  ETV
vector 14443  Network.dyn_peer[221]  lookupHopsSig:vector  ETV
vector 14442  Network.dyn_peer[221]  lookupTimeSig:vector  ETV
vector 14445  Network.dyn_peer[222]  lookupHopsSig:vector  ETV
vector 14444  Network.dyn_peer[222]  lookupTimeSig:vector  ETV
vector 14447  Network.dyn_peer[223]  lookupHopsSig:vector  ETV
vector 14446  Network.dyn_peer[223]  lookupTimeSig:vector  ETV
vector 14449  Network.dyn_peer[224]  lookupHopsSig:vector  ETV
vector 14448  Network.dyn_peer[224]  lookupTimeSig:vector  ETV
vector 14451  Network.dyn_peer[225]  lookupHopsSig:vector  ETV
vector 14450  Network.dyn_peer[225]  lookupTimeSig:vector  ETV
vector 14453  Network.dyn_peer[226]  lookupHopsSig:vector  ETV
vector 14452  Network.dyn_peer[226]  lookupTimeSig:vector  ETV
vector 14455  Network.dyn_peer[227]  lookupHopsSig:vector  ETV
vector 14454  Network.dyn_peer[227]  lookupTimeSig:vector  ETV
vector 14457  Network.dyn_peer[228]  lookupHopsSig:vector  ETV
vector 14456  Network.dyn_peer[228]  lookupTimeSig:vector  ETV
vector 14459  Network.dyn_peer[229]  lookupHopsSig:vector  ETV
vector 14458  Network.dyn_peer[229]  lookupTimeSig:vector  ETV
vector 14461  Network.dyn_peer[230]  lookupHopsSig:vector  ETV
vector 14460  Network.dyn_peer[230]  lookupTimeSig:vector  ETV
vector 14463  Network.dyn_peer[231]  lookupHopsSig:vector  ETV
vector 14462  Network.dyn_peer[231]  lookupTimeSig:vector  ETV
vector 14465  Network.dyn_peer[232]  lookupHopsSig:vector  ETV
vector 14464  Network.dyn_peer[232]  lookupTimeSig:vector  ETV
vector 14467  Network.dyn_peer[233]  lookupHopsSig:vector  ETV
vector 14466  Network.dyn_peer[233]  lookupTimeSig:vector  ETV
vector 14469  Network.dyn_peer[234]  lookupHopsSig:vector  ETV
vector 14468  Network.dyn_peer[234]  lookupTimeSig:vector  ETV
vector 14471  Network.dyn_peer[235]  lookupHopsSig:vector  ETV
vector 14470  Network.dyn_peer[235]  lookupTimeSig:vector  ETV
vector 14473  Network.dyn_peer[236]  lookupHopsSig:vector  ETV