file 1075053 1369674146                                         
version 2
run Stability-41-20130521-22:25:01-23591
attr configname Stability
attr datetime 20130521-22:25:01
attr experiment Stability
attr inifile omnetpp.ini
attr iterationvars $0=4
attr iterationvars2 "$0=4, $repetition=11"
attr measurement $0=4
attr network Network
attr processid 23591
attr repetition 11
attr replication #11
attr resultdir results
attr runnumber 41
attr seedset 41
vector 82001  Network.dyn_peer[0]  lookupHopsSig:vector  ETV
82001	127551 1312 102 114223 24.2 2623.036154810225 43 1 18 272 2642
vector 82000  Network.dyn_peer[0]  lookupTimeSig:vector  ETV
82000	126169 1382 102 114223 24.2 2623.036154810225 43 0.2 1.9 31.4 32.24
vector 82003  Network.dyn_peer[1]  lookupHopsSig:vector  ETV
82003	130476 1537 146 190244 28.3 3738.515343787505 49 1 35 474 7274
vector 82002  Network.dyn_peer[1]  lookupTimeSig:vector  ETV
82002	128863 1613 146 190244 28.3 3738.515343787505 49 0.2 3.6 52.2 82.64
vector 82005  Network.dyn_peer[2]  lookupHopsSig:vector  ETV
82005	133264 1189 172 174134 32.2 3525.153701851286 38 1 26 306 3692
vector 82004  Network.dyn_peer[2]  lookupTimeSig:vector  ETV
82004	132013 1251 172 174134 32.2 3525.153701851286 38 0.2 2.7 34.3 43.37
vector 82007  Network.dyn_peer[3]  lookupHopsSig:vector  ETV
82007	135723 1212 197 176125 36.2 3556.626846222135 39 1 38 375 6165
vector 82006  Network.dyn_peer[3]  lookupTimeSig:vector  ETV
82006	134453 1270 197 176125 36.2 3556.626846222135 39 0.2 3.9 41.3 69.49
vector 82009  Network.dyn_peer[4]  lookupHopsSig:vector  ETV
82009	138156 1169 229 136353 40.1 2976.824561121243 37 1 33 373 5657
vector 82008  Network.dyn_peer[4]  lookupTimeSig:vector  ETV
82008	136935 1221 229 136353 40.1 2976.824561121243 37 0.1 3.4 40.9 64.37
vector 82011  Network.dyn_peer[5]  lookupHopsSig:vector  ETV
82011	139855 498 262 64345 44.2 1763.640158043295 17 1 18 98 892
vector 82010  Network.dyn_peer[5]  lookupTimeSig:vector  ETV
82010	139325 530 262 64345 44.2 1763.640158043295 17 0.2 1.9 11.4 11
vector 82013  Network.dyn_peer[6]  lookupHopsSig:vector  ETV
82013	141774 1363 297 199373 48.2 3859.322023281351 44 1 20 337 3881
vector 82012  Network.dyn_peer[6]  lookupTimeSig:vector  ETV
82012	140353 1421 297 199373 48.2 3859.322023281351 44 0.2 2.1 38 45.94
vector 82015  Network.dyn_peer[7]  lookupHopsSig:vector  ETV
82015	144823 1607 321 117851 52.2 2674.132385841287 52 1 17 381 3921
vector 82014  Network.dyn_peer[7]  lookupTimeSig:vector  ETV
82014	143137 1686 321 117851 52.2 2674.132385841287 52 0.2 1.8 43.2 47.3
vector 82017  Network.dyn_peer[8]  lookupHopsSig:vector  ETV
82017	148139 1633 353 168618 56.1 3440.942282852534 52 1 23 500 6592
vector 82016  Network.dyn_peer[8]  lookupTimeSig:vector  ETV
82016	146430 1709 353 168618 56.1 3440.942282852534 52 0.1 2.4 55.1 76.41
vector 82019  Network.dyn_peer[9]  lookupHopsSig:vector  ETV
82019	151035 1199 398 196509 60.3 3815.544782468485 39 1 23 248 2412
vector 82018  Network.dyn_peer[9]  lookupTimeSig:vector  ETV
82018	149772 1263 398 196509 60.3 3815.544782468485 39 0.2 2.4 28.6 29.4
vector 82021  Network.dyn_peer[10]  lookupHopsSig:vector  ETV
82021	154063 1746 438 167726 64.1 3431.528841944627 56 1 22 471 5553
vector 82020  Network.dyn_peer[10]  lookupTimeSig:vector  ETV
82020	152234 1829 438 167726 64.1 3431.528841944627 56 0.1 2.3 52.6 65.48
vector 82023  Network.dyn_peer[11]  lookupHopsSig:vector  ETV
82023	156806 947 508 187581 68.1 3704.931534699651 31 1 24 215 2303
vector 82022  Network.dyn_peer[11]  lookupTimeSig:vector  ETV
82022	155809 997 508 187581 68.1 3704.931534699651 31 0.1 2.5 24.5 27.61
vector 82025  Network.dyn_peer[12]  lookupHopsSig:vector  ETV
82025	159566 1736 589 184734 72.2 3673.553527435172 55 1 35 530 8438
vector 82024  Network.dyn_peer[12]  lookupTimeSig:vector  ETV
82024	157753 1813 589 184734 72.2 3673.553527435172 55 0.2 3.6 58.4 95.48
vector 82027  Network.dyn_peer[13]  lookupHopsSig:vector  ETV
82027	161937 607 636 181119 76.1 3621.32128190697 20 1 19 156 1702
vector 82026  Network.dyn_peer[13]  lookupTimeSig:vector  ETV
82026	161302 635 636 181119 76.1 3621.32128190697 20 0.1 2 17.5 20.31
vector 82029  Network.dyn_peer[14]  lookupHopsSig:vector  ETV
82029	163534 947 673 188298 80.6 3716.714624533407 30 1 48 311 5997
vector 82028  Network.dyn_peer[14]  lookupTimeSig:vector  ETV
82028	162544 990 673 188298 80.6 3716.714624533407 30 0.2 4.9 34 66.36
vector 82031  Network.dyn_peer[15]  lookupHopsSig:vector  ETV
82031	165711 1165 706 85112 84.2 2109.357712014573 39 1 24 232 2322
vector 82030  Network.dyn_peer[15]  lookupTimeSig:vector  ETV
82030	164481 1230 706 85112 84.2 2109.357712014573 39 0.2 2.5 27 28.2
vector 82033  Network.dyn_peer[16]  lookupHopsSig:vector  ETV
82033	168589 1637 770 194577 88.5 3786.639008249025 52 1 22 431 4755
vector 82032  Network.dyn_peer[16]  lookupTimeSig:vector  ETV
82032	166876 1713 770 194577 88.5 3786.639008249025 52 0.2 2.3 48.2 56.58
vector 82035  Network.dyn_peer[17]  lookupHopsSig:vector  ETV
82035	171402 1112 818 86694 92 2133.256238113615 37 0 25 230 2158
vector 82034  Network.dyn_peer[17]  lookupTimeSig:vector  ETV
82034	170226 1176 818 86694 92 2133.256238113615 37 0 2.6 26.6 26.54
vector 82037  Network.dyn_peer[18]  lookupHopsSig:vector  ETV
82037	173929 1344 888 192629 96.3 3764.023009275303 44 1 23 283 3017
vector 82036  Network.dyn_peer[18]  lookupTimeSig:vector  ETV
82036	172514 1415 888 192629 96.3 3764.023009275303 44 0.2 2.4 32.6 36.2
vector 82039  Network.dyn_peer[19]  lookupHopsSig:vector  ETV
82039	175898 590 963 195944 100.2 3806.11557048385 20 1 19 115 1047
vector 82038  Network.dyn_peer[19]  lookupTimeSig:vector  ETV
82038	175273 625 963 195944 100.2 3806.11557048385 20 0.2 2 13.4 12.92
vector 82041  Network.dyn_peer[20]  lookupHopsSig:vector  ETV
82041	177770 1222 1022 127206 104 2824.326695748082 39 0 23 285 3153
vector 82040  Network.dyn_peer[20]  lookupTimeSig:vector  ETV
82040	176488 1282 1022 127206 104 2824.326695748082 39 0 2.4 32.3 37.61
vector 82043  Network.dyn_peer[21]  lookupHopsSig:vector  ETV
82043	180251 1191 1072 87964 108.2 2151.428799970287 39 1 20 245 2325
vector 82042  Network.dyn_peer[21]  lookupTimeSig:vector  ETV
82042	178992 1259 1072 87964 108.2 2151.428799970287 39 0.2 2.1 28.3 28.49
vector 82045  Network.dyn_peer[22]  lookupHopsSig:vector  ETV
82045	182686 1181 1106 122706 112.3 2748.128707700657 38 1 22 272 3272
vector 82044  Network.dyn_peer[22]  lookupTimeSig:vector  ETV
82044	181442 1244 1106 122706 112.3 2748.128707700657 38 0.2 2.3 30.9 38.47
vector 82047  Network.dyn_peer[23]  lookupHopsSig:vector  ETV
82047	184583 679 1177 137011 116.2 2985.508394095768 22 1 32 191 2817
vector 82046  Network.dyn_peer[23]  lookupTimeSig:vector  ETV
82046	183867 716 1177 137011 116.2 2985.508394095768 22 0.2 3.3 21.2 32.16
vector 82049  Network.dyn_peer[24]  lookupHopsSig:vector  ETV
82049	186540 1214 1257 202374 120.5 3898.818260738229 39 1 34 344 5222
vector 82048  Network.dyn_peer[24]  lookupTimeSig:vector  ETV
82048	185262 1278 1257 202374 120.5 3898.818260738229 39 0.2 3.5 38.2 59.38
vector 82051  Network.dyn_peer[25]  lookupHopsSig:vector  ETV
82051	189836 1989 1302 131638 124.1 2908.12929651631 63 1 38 537 7121
vector 82050  Network.dyn_peer[25]  lookupTimeSig:vector  ETV
82050	187754 2082 1302 131638 124.1 2908.12929651631 63 0.1 3.9 59.9 82.55
vector 82053  Network.dyn_peer[26]  lookupHopsSig:vector  ETV
82053	193693 1761 1359 115994 128.8 2647.138008260882 58 1 16 335 2581
vector 82052  Network.dyn_peer[26]  lookupTimeSig:vector  ETV
82052	191825 1868 1359 115994 128.8 2647.138008260882 58 0.2 1.7 39.2 32.92
vector 82055  Network.dyn_peer[27]  lookupHopsSig:vector  ETV
82055	196936 1409 1416 202266 132.3 3897.03765071163 45 1 55 437 8887
vector 82054  Network.dyn_peer[27]  lookupTimeSig:vector  ETV
82054	195454 1482 1416 202266 132.3 3897.03765071163 45 0.2 5.6 48.1 97.99
vector 82057  Network.dyn_peer[28]  lookupHopsSig:vector  ETV
82057	200441 1989 1476 57802 136.5 1627.05032366208 64 1 25 417 3759
vector 82056  Network.dyn_peer[28]  lookupTimeSig:vector  ETV
82056	198345 2096 1476 57802 136.5 1627.05032366208 64 0.2 2.6 48 46.46
vector 82059  Network.dyn_peer[29]  lookupHopsSig:vector  ETV
82059	203403 924 1517 129917 140.1 2867.129222907396 30 1 16 187 1747
vector 82058  Network.dyn_peer[29]  lookupTimeSig:vector  ETV
82058	202430 973 1517 129917 140.1 2867.129222907396 30 0.1 1.7 21.6 21.48
vector 82061  Network.dyn_peer[30]  lookupHopsSig:vector  ETV
82061	206034 1627 1698 182630 144.7 3645.328407677568 51 1 35 443 6145
vector 82060  Network.dyn_peer[30]  lookupTimeSig:vector  ETV
82060	204327 1707 1698 182630 144.7 3645.328407677568 51 0.2 3.6 49.3 70.67
vector 82063  Network.dyn_peer[31]  lookupHopsSig:vector  ETV
82063	208819 1100 1756 171112 148.9 3471.51637151873 36 1 34 295 3975
vector 82062  Network.dyn_peer[31]  lookupTimeSig:vector  ETV
82062	207661 1158 1756 171112 148.9 3471.51637151873 36 0.2 3.5 33 45.82
vector 82065  Network.dyn_peer[32]  lookupHopsSig:vector  ETV
82065	211839 1825 1811 141548 152.8 3053.122679536692 58 1 24 450 5426
vector 82064  Network.dyn_peer[32]  lookupTimeSig:vector  ETV
82064	209919 1920 1811 141548 152.8 3053.122679536692 58 0.2 2.5 50.7 63.67
vector 82067  Network.dyn_peer[33]  lookupHopsSig:vector  ETV
82067	215302 1570 1869 194012 156.3 3779.53840698028 49 1 39 523 9193
vector 82066  Network.dyn_peer[33]  lookupTimeSig:vector  ETV
82066	213664 1638 1869 194012 156.3 3779.53840698028 49 0.2 4 57.1 102.81
vector 82069  Network.dyn_peer[34]  lookupHopsSig:vector  ETV
82069	217673 756 1946 71615 160.2 1889.033422373067 25 2 17 146 1200
vector 82068  Network.dyn_peer[34]  lookupTimeSig:vector  ETV
82068	216872 801 1946 71615 160.2 1889.033422373067 25 0.2 1.8 17 15.12
vector 82071  Network.dyn_peer[35]  lookupHopsSig:vector  ETV
82071	219108 644 2014 133310 164.4 2933.913110805713 21 3 17 165 1655
vector 82070  Network.dyn_peer[35]  lookupTimeSig:vector  ETV
82070	218429 679 2014 133310 164.4 2933.913110805713 21 0.4 1.8 18.5 19.97
vector 82073  Network.dyn_peer[36]  lookupHopsSig:vector  ETV
82073	221085 1281 2081 175543 168.7 3547.12745202839 40 2 29 471 7775
vector 82072  Network.dyn_peer[36]  lookupTimeSig:vector  ETV
82072	219752 1333 2081 175543 168.7 3547.12745202839 40 0.3 3 51 87.42
vector 82075  Network.dyn_peer[37]  lookupHopsSig:vector  ETV
82075	222970 569 2133 65787 172.1 1792.475035766634 19 1 10 90 546
vector 82074  Network.dyn_peer[37]  lookupTimeSig:vector  ETV
82074	222366 604 2133 65787 172.1 1792.475035766634 19 0.1 1.1 10.8 7.42
vector 82077  Network.dyn_peer[38]  lookupHopsSig:vector  ETV
82077	224384 805 2229 170528 176.4 3464.25597838511 26 1 27 226 2872
vector 82076  Network.dyn_peer[38]  lookupTimeSig:vector  ETV
82076	223539 845 2229 170528 176.4 3464.25597838511 26 0.2 2.8 25.1 33.41
vector 82079  Network.dyn_peer[39]  lookupHopsSig:vector  ETV
82079	226814 1546 2282 204937 180.2 3935.259142696688 49 2 18 356 3482
vector 82078  Network.dyn_peer[39]  lookupTimeSig:vector  ETV
82078	225189 1625 2282 204937 180.2 3935.259142696688 49 0.2 1.9 40.4 42.38
vector 82081  Network.dyn_peer[40]  lookupHopsSig:vector  ETV
82081	229775 1346 2351 162878 184.8 3366.351411724392 43 1 33 383 5659
vector 82080  Network.dyn_peer[40]  lookupTimeSig:vector  ETV
82080	228360 1415 2351 162878 184.8 3366.351411724392 43 0.2 3.4 42.5 64.51
vector 82083  Network.dyn_peer[41]  lookupHopsSig:vector  ETV
82083	232073 904 2484 153737 188.4 3244.016755575703 29 2 16 203 1987
vector 82082  Network.dyn_peer[41]  lookupTimeSig:vector  ETV
82082	231121 952 2484 153737 188.4 3244.016755575703 29 0.3 1.7 23.1 24.13
vector 82085  Network.dyn_peer[42]  lookupHopsSig:vector  ETV
82085	234318 1287 2596 129738 192.4 2864.336794165509 41 2 24 348 4038
vector 82084  Network.dyn_peer[42]  lookupTimeSig:vector  ETV
82084	232977 1341 2596 129738 192.4 2864.336794165509 41 0.3 2.5 38.8 47.66
vector 82087  Network.dyn_peer[43]  lookupHopsSig:vector  ETV
82087	237104 1424 2757 111242 196.2 2577.42216310813 46 1 20 312 3028
vector 82086  Network.dyn_peer[43]  lookupTimeSig:vector  ETV
82086	235605 1499 2757 111242 196.2 2577.42216310813 46 0.2 2.1 35.7 36.93
vector 82089  Network.dyn_peer[44]  lookupHopsSig:vector  ETV
82089	239612 1034 2852 129631 200.5 2862.823803178071 33 1 21 245 2713
vector 82088  Network.dyn_peer[44]  lookupTimeSig:vector  ETV
82088	238528 1084 2852 129631 200.5 2862.823803178071 33 0.2 2.2 27.7 32.25
vector 82091  Network.dyn_peer[45]  lookupHopsSig:vector  ETV
82091	242993 2261 2904 183211 204.1 3653.326216879848 70 1 25 725 9371
vector 82090  Network.dyn_peer[45]  lookupTimeSig:vector  ETV
82090	240646 2347 2904 183211 204.1 3653.326216879848 70 0.1 2.6 79.4 108.88
vector 82093  Network.dyn_peer[46]  lookupHopsSig:vector  ETV
82093	246205 909 2964 182652 208.2 3645.535243639973 29 1 22 272 3520
vector 82092  Network.dyn_peer[46]  lookupTimeSig:vector  ETV
82092	245254 951 2964 182652 208.2 3645.535243639973 29 0.2 2.3 30 40.88
vector 82095  Network.dyn_peer[47]  lookupHopsSig:vector  ETV
82095	247679 532 3016 163651 212.7 3378.731874061631 18 3 26 114 1196
vector 82094  Network.dyn_peer[47]  lookupTimeSig:vector  ETV
82094	247114 565 3016 163651 212.7 3378.731874061631 18 0.4 2.7 13.1 14.27
vector 82097  Network.dyn_peer[48]  lookupHopsSig:vector  ETV
82097	249543 1265 3169 86480 216.3 2130.736028372919 41 1 24 276 2902
vector 82096  Network.dyn_peer[48]  lookupTimeSig:vector  ETV
82096	248211 1332 3169 86480 216.3 2130.736028372919 41 0.2 2.5 31.6 34.88
vector 82099  Network.dyn_peer[49]  lookupHopsSig:vector  ETV
82099	252510 1623 3317 184393 220.5 3668.635267479086 51 1 24 433 5345
vector 82098  Network.dyn_peer[49]  lookupTimeSig:vector  ETV
82098	250808 1702 3317 184393 220.5 3668.635267479086 51 0.2 2.5 48.3 62.51
vector 82101  Network.dyn_peer[50]  lookupHopsSig:vector  ETV
82101	255709 1508 3394 206107 224 3949.843838905219 48 0 39 428 7062
vector 82100  Network.dyn_peer[50]  lookupTimeSig:vector  ETV
82100	254133 1576 3394 206107 224 3949.843838905219 48 0 4 47.5 79.65
vector 82103  Network.dyn_peer[51]  lookupHopsSig:vector  ETV
82103	258190 939 3484 212877 228.7 4023.528547910555 30 3 23 308 4016
vector 82102  Network.dyn_peer[51]  lookupTimeSig:vector  ETV
82102	257217 973 3484 212877 228.7 4023.528547910555 30 0.4 2.4 33.7 46.47
vector 82105  Network.dyn_peer[52]  lookupHopsSig:vector  ETV
82105	260159 975 3659 111641 232.4 2582.024829460183 32 2 19 198 1654
vector 82104  Network.dyn_peer[52]  lookupTimeSig:vector  ETV
82104	259129 1030 3659 111641 232.4 2582.024829460183 32 0.3 2 22.9 20.73
vector 82107  Network.dyn_peer[53]  lookupHopsSig:vector  ETV
82107	261733 567 3773 83183 236.3 2082.623966724056 19 1 18 106 1078
vector 82106  Network.dyn_peer[53]  lookupTimeSig:vector  ETV
82106	261134 599 3773 83183 236.3 2082.623966724056 19 0.2 1.9 12.4 13.02
vector 82109  Network.dyn_peer[54]  lookupHopsSig:vector  ETV
82109	263958 1580 3885 171128 240.5 3471.644135952338 50 2 29 409 5251
vector 82108  Network.dyn_peer[54]  lookupTimeSig:vector  ETV
82108	262300 1658 3885 171128 240.5 3471.644135952338 50 0.3 3 45.8 61.08
vector 82111  Network.dyn_peer[55]  lookupHopsSig:vector  ETV
82111	266612 1022 3951 207153 244.5 3959.323207970066 32 1 23 284 3700
vector 82110  Network.dyn_peer[55]  lookupTimeSig:vector  ETV
82110	265538 1074 3951 207153 244.5 3959.323207970066 32 0.2 2.4 31.5 42.89
vector 82113  Network.dyn_peer[56]  lookupHopsSig:vector  ETV
82113	269460 1735 4004 97210 248.2 2314.828376972074 56 2 22 404 3728
vector 82112  Network.dyn_peer[56]  lookupTimeSig:vector  ETV
82112	267634 1826 4004 97210 248.2 2314.828376972074 56 0.2 2.3 45.9 45.87
vector 82115  Network.dyn_peer[57]  lookupHopsSig:vector  ETV
82115	272601 1350 4115 188026 252.1 3711.652707640934 42 1 28 428 6154
vector 82114  Network.dyn_peer[57]  lookupTimeSig:vector  ETV
82114	271195 1406 4115 188026 252.1 3711.652707640934 42 0.1 2.9 46.9 70.49
vector 82117  Network.dyn_peer[58]  lookupHopsSig:vector  ETV
82117	274778 780 4255 44716 256.2 1348.917972312754 26 2 15 146 1148
vector 82116  Network.dyn_peer[58]  lookupTimeSig:vector  ETV
82116	273951 827 4255 44716 256.2 1348.917972312754 26 0.2 1.6 17.1 14.61
vector 82119  Network.dyn_peer[59]  lookupHopsSig:vector  ETV
82119	277390 1753 4318 151230 260.5 3211.42974443545 55 2 31 506 6210
vector 82118  Network.dyn_peer[59]  lookupTimeSig:vector  ETV
82118	275558 1832 4318 151230 260.5 3211.42974443545 55 0.3 3.2 56 72.66
vector 82121  Network.dyn_peer[60]  lookupHopsSig:vector  ETV
82121	280013 825 4404 145764 264.2 3126.147108269177 27 2 18 206 2262
vector 82120  Network.dyn_peer[60]  lookupTimeSig:vector  ETV
82120	279143 870 4404 145764 264.2 3126.147108269177 27 0.2 1.9 23.2 26.96
vector 82123  Network.dyn_peer[61]  lookupHopsSig:vector  ETV
82123	282719 1806 4565 170822 268.3 3467.336615084775 56 2 27 641 9907
vector 82122  Network.dyn_peer[61]  lookupTimeSig:vector  ETV
82122	280838 1881 4565 170822 268.3 3467.336615084775 56 0.3 2.8 69.6 112.38
vector 82125  Network.dyn_peer[62]  lookupHopsSig:vector  ETV
82125	285668 1087 4671 202187 272.1 3896.030309246865 35 1 22 295 3519
vector 82124  Network.dyn_peer[62]  lookupTimeSig:vector  ETV
82124	284525 1143 4671 202187 272.1 3896.030309246865 35 0.1 2.3 32.9 41.41
vector 82127  Network.dyn_peer[63]  lookupHopsSig:vector  ETV
82127	287520 725 4740 111829 276.5 2584.138168652305 24 3 15 181 1803
vector 82126  Network.dyn_peer[63]  lookupTimeSig:vector  ETV
82126	286755 765 4740 111829 276.5 2584.138168652305 24 0.4 1.6 20.4 21.78
vector 82129  Network.dyn_peer[64]  lookupHopsSig:vector  ETV
82129	289225 938 4868 193268 280.4 3770.523739416968 30 1 31 285 4581
vector 82128  Network.dyn_peer[64]  lookupTimeSig:vector  ETV
82128	288245 980 4868 193268 280.4 3770.523739416968 30 0.2 3.2 31.4 51.72
vector 82131  Network.dyn_peer[65]  lookupHopsSig:vector  ETV
82131	291087 880 5030 130087 284.2 2870.5118715288 29 2 22 215 2511
vector 82130  Network.dyn_peer[65]  lookupTimeSig:vector  ETV
82130	290163 924 5030 130087 284.2 2870.5118715288 29 0.2 2.3 24.3 29.65
vector 82133  Network.dyn_peer[66]  lookupHopsSig:vector  ETV
82133	292832 826 5130 159758 288.5 3318.150986682292 26 2 27 255 3451
vector 82132  Network.dyn_peer[66]  lookupTimeSig:vector  ETV
82132	291967 865 5130 159758 288.5 3318.150986682292 26 0.3 2.8 28 39.76
vector 82135  Network.dyn_peer[67]  lookupHopsSig:vector  ETV
82135	294441 744 5248 116780 292.5 2657.158518660175 24 1 23 178 2562
vector 82134  Network.dyn_peer[67]  lookupTimeSig:vector  ETV
82134	293658 783 5248 116780 292.5 2657.158518660175 24 0.2 2.4 20.1 29.31
vector 82137  Network.dyn_peer[68]  lookupHopsSig:vector  ETV
82137	295822 609 5380 73613 296.6 1917.239907771945 20 3 22 192 2358
vector 82136  Network.dyn_peer[68]  lookupTimeSig:vector  ETV
82136	295185 637 5380 73613 296.6 1917.239907771945 20 0.4 2.3 21.1 27.49
vector 82139  Network.dyn_peer[69]  lookupHopsSig:vector  ETV
82139	297833 1337 5487 153960 300.6 3246.431529079766 43 2 22 341 3575
vector 82138  Network.dyn_peer[69]  lookupTimeSig:vector  ETV
82138	296431 1402 5487 153960 300.6 3246.431529079766 43 0.3 2.3 38.3 42.87
vector 82141  Network.dyn_peer[70]  lookupHopsSig:vector  ETV
82141	299940 733 5550 87037 304.1 2137.544557281078 24 1 22 191 2391
vector 82140  Network.dyn_peer[70]  lookupTimeSig:vector  ETV
82140	299170 770 5550 87037 304.1 2137.544557281078 24 0.1 2.3 21.4 27.94
vector 82143  Network.dyn_peer[71]  lookupHopsSig:vector  ETV
82143	301748 1029 5645 149109 308.4 3181.326034582736 33 1 35 315 4259
vector 82142  Network.dyn_peer[71]  lookupTimeSig:vector  ETV
82142	300673 1075 5645 149109 308.4 3181.326034582736 33 0.2 3.6 34.7 49.13
vector 82145  Network.dyn_peer[72]  lookupHopsSig:vector  ETV
82145	303694 866 5755 44762 312.4 1349.617961776643 29 1 13 177 1377
vector 82144  Network.dyn_peer[72]  lookupTimeSig:vector  ETV
82144	302777 917 5755 44762 312.4 1349.617961776643 29 0.2 1.4 20.5 17.51
vector 82147  Network.dyn_peer[73]  lookupHopsSig:vector  ETV
82147	306096 1452 5872 208261 316.7 3969.227959616506 47 1 30 318 3590
vector 82146  Network.dyn_peer[73]  lookupTimeSig:vector  ETV
82146	304560 1536 5872 208261 316.7 3969.227959616506 47 0.2 3.1 36.4 42.58
vector 82149  Network.dyn_peer[74]  lookupHopsSig:vector  ETV
82149	308249 669 5939 87399 320.5 2143.4350006958 22 2 29 178 2270
vector 82148  Network.dyn_peer[74]  lookupTimeSig:vector  ETV
82148	307548 701 5939 87399 320.5 2143.4350006958 22 0.3 3 19.9 26.37
vector 82151  Network.dyn_peer[75]  lookupHopsSig:vector  ETV
82151	309398 459 6135 134587 324.4 2949.536870853308 15 1 24 143 1985
vector 82150  Network.dyn_peer[75]  lookupTimeSig:vector  ETV
82150	308918 480 6135 134587 324.4 2949.536870853308 15 0.2 2.5 15.7 22.77
vector 82153  Network.dyn_peer[76]  lookupHopsSig:vector  ETV
82153	311146 1228 6228 130717 328.3 2888.21806230599 40 1 18 264 2466
vector 82152  Network.dyn_peer[76]  lookupTimeSig:vector  ETV
82152	309857 1289 6228 130717 328.3 2888.21806230599 40 0.2 1.9 30.3 30.27
vector 82155  Network.dyn_peer[77]  lookupHopsSig:vector  ETV
82155	315178 2677 6404 207184 332.7 3959.547983739368 84 3 40 780 10766
vector 82154  Network.dyn_peer[77]  lookupTimeSig:vector  ETV
82154	312374 2804 6404 207184 332.7 3959.547983739368 84 0.4 4.1 86.3 123.95
vector 82157  Network.dyn_peer[78]  lookupHopsSig:vector  ETV
82157	319452 1526 6473 188321 336.3 3717.226614846047 48 3 40 476 7218
vector 82156  Network.dyn_peer[78]  lookupTimeSig:vector  ETV
82156	317855 1597 6473 188321 336.3 3717.226614846047 48 0.3 4.1 52.3 82.11
vector 82159  Network.dyn_peer[79]  lookupHopsSig:vector  ETV
82159	322061 1035 6558 173670 340.6 3514.60505964941 33 2 23 320 4438
vector 82158  Network.dyn_peer[79]  lookupTimeSig:vector  ETV
82158	320978 1083 6558 173670 340.6 3514.60505964941 33 0.3 2.4 35.2 50.98
vector 82161  Network.dyn_peer[80]  lookupHopsSig:vector  ETV
82161	323575 450 6698 135709 344.6 2962.735968082633 15 1 11 71 415
vector 82160  Network.dyn_peer[80]  lookupTimeSig:vector  ETV
82160	323096 479 6698 135709 344.6 2962.735968082633 15 0.2 1.2 8.5 5.59
vector 82163  Network.dyn_peer[81]  lookupHopsSig:vector  ETV
82163	325738 1638 6840 138029 349 2999.639996747219 52 1 28 479 6503
vector 82162  Network.dyn_peer[81]  lookupTimeSig:vector  ETV
82162	324025 1713 6840 138029 349 2999.639996747219 52 0.2 2.9 53 74.92
vector 82165  Network.dyn_peer[82]  lookupHopsSig:vector  ETV
82165	328545 1113 6930 79871 352.6 2030.724372345715 36 1 20 284 3156
vector 82164  Network.dyn_peer[82]  lookupTimeSig:vector  ETV
82164	327376 1169 6930 79871 352.6 2030.724372345715 36 0.2 2.1 31.9 37.47
vector 82167  Network.dyn_peer[83]  lookupHopsSig:vector  ETV
82167	330267 577 7036 121137 356.2 2728.131143285713 19 1 13 116 982
vector 82166  Network.dyn_peer[83]  lookupTimeSig:vector  ETV
82166	329658 609 7036 121137 356.2 2728.131143285713 19 0.2 1.4 13.4 12.28
vector 82169  Network.dyn_peer[84]  lookupHopsSig:vector  ETV
82169	331815 926 7256 91697 360.3 2211.241273362461 30 1 37 239 3441
vector 82168  Network.dyn_peer[84]  lookupTimeSig:vector  ETV
82168	330844 971 7256 91697 360.3 2211.241273362461 30 0.2 3.8 26.8 39.42
vector 82171  Network.dyn_peer[85]  lookupHopsSig:vector  ETV
82171	333539 757 7366 180909 364.3 3618.965947069497 25 2 23 171 2061
vector 82170  Network.dyn_peer[85]  lookupTimeSig:vector  ETV
82170	332741 798 7366 180909 364.3 3618.965947069497 25 0.3 2.4 19.5 24.21
vector 82173  Network.dyn_peer[86]  lookupHopsSig:vector  ETV
82173	335207 866 7437 167656 368.6 3430.832481600955 28 1 26 225 2737
vector 82172  Network.dyn_peer[86]  lookupTimeSig:vector  ETV
82172	334296 911 7437 167656 368.6 3430.832481600955 28 0.2 2.7 25.2 32.02
vector 82175  Network.dyn_peer[87]  lookupHopsSig:vector  ETV
82175	337059 938 7513 193409 372.4 3772.026991909379 30 1 34 243 3665
vector 82174  Network.dyn_peer[87]  lookupTimeSig:vector  ETV
82174	336073 986 7513 193409 372.4 3772.026991909379 30 0.2 3.5 27.2 41.72
vector 82177  Network.dyn_peer[88]  lookupHopsSig:vector  ETV
82177	339427 1366 7574 144987 376.3 3115.224772455666 43 1 25 348 4172
vector 82176  Network.dyn_peer[88]  lookupTimeSig:vector  ETV
82176	337997 1430 7574 144987 376.3 3115.224772455666 43 0.2 2.6 39 49.04
vector 82179  Network.dyn_peer[89]  lookupHopsSig:vector  ETV
82179	341687 845 7657 73213 380.9 1911.415715226483 28 2 20 192 1722
vector 82178  Network.dyn_peer[89]  lookupTimeSig:vector  ETV
82178	340793 894 7657 73213 380.9 1911.415715226483 28 0.3 2.1 21.9 21.15
vector 82181  Network.dyn_peer[90]  lookupHopsSig:vector  ETV
82181	344034 1434 7794 188187 384.4 3714.609069424368 46 1 29 424 5594
vector 82180  Network.dyn_peer[90]  lookupTimeSig:vector  ETV
82180	342532 1502 7794 188187 384.4 3714.609069424368 46 0.2 3 46.9 64.79
vector 82183  Network.dyn_peer[91]  lookupHopsSig:vector  ETV
82183	345702 220 7986 8141 388.7 394.032387062075 8 1 14 53 467
vector 82182  Network.dyn_peer[91]  lookupTimeSig:vector  ETV
82182	345468 234 7986 8141 388.7 394.032387062075 8 0.2 1.5 6 5.66
vector 82185  Network.dyn_peer[92]  lookupHopsSig:vector  ETV
82185	346901 936 8085 170572 392.9 3464.743198555848 30 2 20 275 3469
vector 82184  Network.dyn_peer[92]  lookupTimeSig:vector  ETV
82184	345922 979 8085 170572 392.9 3464.743198555848 30 0.3 2.1 30.4 40.3
vector 82187  Network.dyn_peer[93]  lookupHopsSig:vector  ETV
82187	348351 488 8257 162237 396.8 3349.218680206427 16 2 23 134 1502
vector 82186  Network.dyn_peer[93]  lookupTimeSig:vector  ETV
82186	347837 514 8257 162237 396.8 3349.218680206427 16 0.3 2.4 14.9 17.69
vector 82189  Network.dyn_peer[94]  lookupHopsSig:vector  ETV
82189	349081 227 8384 38315 400.6 1180.317994725047 8 6 10 56 408
vector 82188  Network.dyn_peer[94]  lookupTimeSig:vector  ETV
82188	348839 242 8384 38315 400.6 1180.317994725047 8 0.6 1.1 6.3 5.15
vector 82191  Network.dyn_peer[95]  lookupHopsSig:vector  ETV
82191	349955 620 8427 171506 404.2 3477.048722630707 20 2 23 207 2729
vector 82190  Network.dyn_peer[95]  lookupTimeSig:vector  ETV
82190	349308 647 8427 171506 404.2 3477.048722630707 20 0.2 2.4 22.6 31.58
vector 82193  Network.dyn_peer[96]  lookupHopsSig:vector  ETV
82193	351337 716 8577 102500 408.3 2417.120026010217 24 1 21 147 1257
vector 82192  Network.dyn_peer[96]  lookupTimeSig:vector  ETV
82192	350575 762 8577 102500 408.3 2417.120026010217 24 0.2 2.2 17 15.68
vector 82195  Network.dyn_peer[97]  lookupHopsSig:vector  ETV
82195	353119 1018 8674 174316 412.7 3528.516253037111 32 1 14 228 2010
vector 82194  Network.dyn_peer[97]  lookupTimeSig:vector  ETV
82194	352053 1066 8674 174316 412.7 3528.516253037111 32 0.2 1.5 25.9 24.83
vector 82197  Network.dyn_peer[98]  lookupHopsSig:vector  ETV
82197	355400 1203 8726 102004 416.2 2406.424240744692 39 2 15 273 2693
vector 82196  Network.dyn_peer[98]  lookupTimeSig:vector  ETV
82196	354137 1263 8726 102004 416.2 2406.424240744692 39 0.2 1.6 31.1 32.73
vector 82199  Network.dyn_peer[99]  lookupHopsSig:vector  ETV
82199	357038 410 8842 44609 420.5 1346.633419294115 14 1 15 78 620
vector 82198  Network.dyn_peer[99]  lookupTimeSig:vector  ETV
82198	356603 435 8842 44609 420.5 1346.633419294115 14 0.2 1.6 9.1 7.79
vector 82201  Network.dyn_peer[100]  lookupHopsSig:vector  ETV
82201	358329 842 8980 141224 424.4 3049.32109500099 27 1 23 231 2943
vector 82200  Network.dyn_peer[100]  lookupTimeSig:vector  ETV
82200	357448 881 8980 141224 424.4 3049.32109500099 27 0.2 2.4 25.7 34.23
vector 82203  Network.dyn_peer[101]  lookupHopsSig:vector  ETV
82203	359709 510 9048 203826 428.5 3918.233320782861 17 1 23 116 1212
vector 82202  Network.dyn_peer[101]  lookupTimeSig:vector  ETV
82202	359171 538 9048 203826 428.5 3918.233320782861 17 0.2 2.4 13.2 14.5
vector 82205  Network.dyn_peer[102]  lookupHopsSig:vector  ETV
82205	361517 1239 9129 162633 433.2 3358.433649484123 39 1 28 366 5004
vector 82204  Network.dyn_peer[102]  lookupTimeSig:vector  ETV
82204	360219 1298 9129 162633 433.2 3358.433649484123 39 0.2 2.9 40.4 57.5
vector 82207  Network.dyn_peer[103]  lookupHopsSig:vector  ETV
82207	363927 1116 9188 114293 436.5 2624.320146170692 36 1 27 276 3560
vector 82206  Network.dyn_peer[103]  lookupTimeSig:vector  ETV
82206	362756 1171 9188 114293 436.5 2624.320146170692 36 0.2 2.8 31.1 41.37
vector 82209  Network.dyn_peer[104]  lookupHopsSig:vector  ETV
82209	365946 860 9321 106504 440.5 2486.320353914874 28 1 27 262 3840
vector 82208  Network.dyn_peer[104]  lookupTimeSig:vector  ETV
82208	365043 903 9321 106504 440.5 2486.320353914874 28 0.2 2.8 28.9 43.81
vector 82211  Network.dyn_peer[105]  lookupHopsSig:vector  ETV
82211	367897 1047 9564 145883 444.3 3128.534466589617 33 1 34 359 5799
vector 82210  Network.dyn_peer[105]  lookupTimeSig:vector  ETV
82210	366806 1091 9564 145883 444.3 3128.534466589617 33 0.2 3.5 39.1 65.43
vector 82213  Network.dyn_peer[106]  lookupHopsSig:vector  ETV
82213	370264 1263 9699 187254 448.5 3701.367661843062 40 1 17 344 3710
vector 82212  Network.dyn_peer[106]  lookupTimeSig:vector  ETV
82212	368944 1320 9699 187254 448.5 3701.367661843062 40 0.2 1.8 38.3 44.27
vector 82215  Network.dyn_peer[107]  lookupHopsSig:vector  ETV
82215	372812 1228 9839 175413 453.2 3544.862682529969 39 1 22 329 3591
vector 82214  Network.dyn_peer[107]  lookupTimeSig:vector  ETV
82214	371527 1285 9839 175413 453.2 3544.862682529969 39 0.2 2.3 36.7 42.63
vector 82217  Network.dyn_peer[108]  lookupHopsSig:vector  ETV
82217	374941 866 9953 181386 456.7 3625.268218896653 27 4 25 289 3805
vector 82216  Network.dyn_peer[108]  lookupTimeSig:vector  ETV
82216	374040 901 9953 181386 456.7 3625.268218896653 27 0.5 2.6 31.5 43.95
vector 82219  Network.dyn_peer[109]  lookupHopsSig:vector  ETV
82219	378193 2290 10074 207786 460.7 3964.634701258348 71 1 47 770 13040
vector 82218  Network.dyn_peer[109]  lookupTimeSig:vector  ETV
82218	375807 2386 10074 207786 460.7 3964.634701258348 71 0.2 4.8 84 146.36
vector 82221  Network.dyn_peer[110]  lookupHopsSig:vector  ETV