file 630414 1369169100                                          
version 2
run Stability-250-20130521-22:44:57-23591
attr configname Stability
attr datetime 20130521-22:44:57
attr experiment Stability
attr inifile omnetpp.ini
attr iterationvars $0=0.03125
attr iterationvars2 "$0=0.03125, $repetition=10"
attr measurement $0=0.03125
attr network Network
attr processid 23591
attr repetition 10
attr replication #10
attr resultdir results
attr runnumber 250
attr seedset 250

vector 500011  Network.dyn_peer[5]  lookupHopsSig:vector  ETV
vector 500010  Network.dyn_peer[5]  lookupTimeSig:vector  ETV
vector 500009  Network.dyn_peer[4]  lookupHopsSig:vector  ETV
vector 500008  Network.dyn_peer[4]  lookupTimeSig:vector  ETV
vector 500003  Network.dyn_peer[1]  lookupHopsSig:vector  ETV
vector 500002  Network.dyn_peer[1]  lookupTimeSig:vector  ETV
vector 500007  Network.dyn_peer[3]  lookupHopsSig:vector  ETV
vector 500006  Network.dyn_peer[3]  lookupTimeSig:vector  ETV
vector 500001  Network.dyn_peer[0]  lookupHopsSig:vector  ETV
vector 500000  Network.dyn_peer[0]  lookupTimeSig:vector  ETV
vector 500005  Network.dyn_peer[2]  lookupHopsSig:vector  ETV
vector 500004  Network.dyn_peer[2]  lookupTimeSig:vector  ETV
vector 500015  Network.dyn_peer[7]  lookupHopsSig:vector  ETV
vector 500014  Network.dyn_peer[7]  lookupTimeSig:vector  ETV
vector 500023  Network.dyn_peer[11]  lookupHopsSig:vector  ETV
vector 500022  Network.dyn_peer[11]  lookupTimeSig:vector  ETV
vector 500025  Network.dyn_peer[12]  lookupHopsSig:vector  ETV
vector 500024  Network.dyn_peer[12]  lookupTimeSig:vector  ETV
vector 500013  Network.dyn_peer[6]  lookupHopsSig:vector  ETV
vector 500012  Network.dyn_peer[6]  lookupTimeSig:vector  ETV
vector 500017  Network.dyn_peer[8]  lookupHopsSig:vector  ETV
vector 500016  Network.dyn_peer[8]  lookupTimeSig:vector  ETV
vector 500019  Network.dyn_peer[9]  lookupHopsSig:vector  ETV
vector 500018  Network.dyn_peer[9]  lookupTimeSig:vector  ETV
vector 500021  Network.dyn_peer[10]  lookupHopsSig:vector  ETV
vector 500020  Network.dyn_peer[10]  lookupTimeSig:vector  ETV
vector 500037  Network.dyn_peer[18]  lookupHopsSig:vector  ETV
vector 500036  Network.dyn_peer[18]  lookupTimeSig:vector  ETV
vector 500039  Network.dyn_peer[19]  lookupHopsSig:vector  ETV
vector 500038  Network.dyn_peer[19]  lookupTimeSig:vector  ETV
vector 500027  Network.dyn_peer[13]  lookupHopsSig:vector  ETV
vector 500026  Network.dyn_peer[13]  lookupTimeSig:vector  ETV
vector 500035  Network.dyn_peer[17]  lookupHopsSig:vector  ETV
vector 500034  Network.dyn_peer[17]  lookupTimeSig:vector  ETV
vector 500031  Network.dyn_peer[15]  lookupHopsSig:vector  ETV
vector 500030  Network.dyn_peer[15]  lookupTimeSig:vector  ETV
vector 500033  Network.dyn_peer[16]  lookupHopsSig:vector  ETV
vector 500032  Network.dyn_peer[16]  lookupTimeSig:vector  ETV
vector 500041  Network.dyn_peer[20]  lookupHopsSig:vector  ETV
vector 500040  Network.dyn_peer[20]  lookupTimeSig:vector  ETV
vector 500049  Network.dyn_peer[24]  lookupHopsSig:vector  ETV
vector 500048  Network.dyn_peer[24]  lookupTimeSig:vector  ETV
vector 500043  Network.dyn_peer[21]  lookupHopsSig:vector  ETV
vector 500042  Network.dyn_peer[21]  lookupTimeSig:vector  ETV
vector 500051  Network.dyn_peer[25]  lookupHopsSig:vector  ETV
vector 500050  Network.dyn_peer[25]  lookupTimeSig:vector  ETV
vector 500047  Network.dyn_peer[23]  lookupHopsSig:vector  ETV
vector 500046  Network.dyn_peer[23]  lookupTimeSig:vector  ETV
vector 500061  Network.dyn_peer[30]  lookupHopsSig:vector  ETV
vector 500060  Network.dyn_peer[30]  lookupTimeSig:vector  ETV
vector 500057  Network.dyn_peer[28]  lookupHopsSig:vector  ETV
vector 500056  Network.dyn_peer[28]  lookupTimeSig:vector  ETV
vector 500045  Network.dyn_peer[22]  lookupHopsSig:vector  ETV
vector 500044  Network.dyn_peer[22]  lookupTimeSig:vector  ETV
vector 500055  Network.dyn_peer[27]  lookupHopsSig:vector  ETV
vector 500054  Network.dyn_peer[27]  lookupTimeSig:vector  ETV
vector 500063  Network.dyn_peer[31]  lookupHopsSig:vector  ETV
vector 500062  Network.dyn_peer[31]  lookupTimeSig:vector  ETV
vector 500069  Network.dyn_peer[34]  lookupHopsSig:vector  ETV
vector 500068  Network.dyn_peer[34]  lookupTimeSig:vector  ETV
vector 500071  Network.dyn_peer[35]  lookupHopsSig:vector  ETV
vector 500070  Network.dyn_peer[35]  lookupTimeSig:vector  ETV
vector 500053  Network.dyn_peer[26]  lookupHopsSig:vector  ETV
vector 500052  Network.dyn_peer[26]  lookupTimeSig:vector  ETV
vector 500073  Network.dyn_peer[36]  lookupHopsSig:vector  ETV
vector 500072  Network.dyn_peer[36]  lookupTimeSig:vector  ETV
vector 500029  Network.dyn_peer[14]  lookupHopsSig:vector  ETV
vector 500028  Network.dyn_peer[14]  lookupTimeSig:vector  ETV
vector 500079  Network.dyn_peer[39]  lookupHopsSig:vector  ETV
vector 500078  Network.dyn_peer[39]  lookupTimeSig:vector  ETV
vector 500093  Network.dyn_peer[46]  lookupHopsSig:vector  ETV
vector 500092  Network.dyn_peer[46]  lookupTimeSig:vector  ETV
vector 500095  Network.dyn_peer[47]  lookupHopsSig:vector  ETV
vector 500094  Network.dyn_peer[47]  lookupTimeSig:vector  ETV
vector 500105  Network.dyn_peer[52]  lookupHopsSig:vector  ETV
vector 500104  Network.dyn_peer[52]  lookupTimeSig:vector  ETV
vector 500087  Network.dyn_peer[43]  lookupHopsSig:vector  ETV
vector 500086  Network.dyn_peer[43]  lookupTimeSig:vector  ETV
vector 500081  Network.dyn_peer[40]  lookupHopsSig:vector  ETV
vector 500080  Network.dyn_peer[40]  lookupTimeSig:vector  ETV
vector 500075  Network.dyn_peer[37]  lookupHopsSig:vector  ETV
vector 500074  Network.dyn_peer[37]  lookupTimeSig:vector  ETV
vector 500101  Network.dyn_peer[50]  lookupHopsSig:vector  ETV
vector 500100  Network.dyn_peer[50]  lookupTimeSig:vector  ETV
vector 500089  Network.dyn_peer[44]  lookupHopsSig:vector  ETV
vector 500088  Network.dyn_peer[44]  lookupTimeSig:vector  ETV
vector 500059  Network.dyn_peer[29]  lookupHopsSig:vector  ETV
vector 500058  Network.dyn_peer[29]  lookupTimeSig:vector  ETV
vector 500085  Network.dyn_peer[42]  lookupHopsSig:vector  ETV
vector 500084  Network.dyn_peer[42]  lookupTimeSig:vector  ETV
vector 500097  Network.dyn_peer[48]  lookupHopsSig:vector  ETV
vector 500096  Network.dyn_peer[48]  lookupTimeSig:vector  ETV
vector 500099  Network.dyn_peer[49]  lookupHopsSig:vector  ETV
vector 500098  Network.dyn_peer[49]  lookupTimeSig:vector  ETV
vector 500109  Network.dyn_peer[54]  lookupHopsSig:vector  ETV
vector 500108  Network.dyn_peer[54]  lookupTimeSig:vector  ETV
vector 500103  Network.dyn_peer[51]  lookupHopsSig:vector  ETV
vector 500102  Network.dyn_peer[51]  lookupTimeSig:vector  ETV
vector 500067  Network.dyn_peer[33]  lookupHopsSig:vector  ETV
vector 500066  Network.dyn_peer[33]  lookupTimeSig:vector  ETV
vector 500107  Network.dyn_peer[53]  lookupHopsSig:vector  ETV
vector 500106  Network.dyn_peer[53]  lookupTimeSig:vector  ETV
vector 500115  Network.dyn_peer[57]  lookupHopsSig:vector  ETV
vector 500114  Network.dyn_peer[57]  lookupTimeSig:vector  ETV
vector 500111  Network.dyn_peer[55]  lookupHopsSig:vector  ETV
vector 500110  Network.dyn_peer[55]  lookupTimeSig:vector  ETV
vector 500119  Network.dyn_peer[59]  lookupHopsSig:vector  ETV
vector 500118  Network.dyn_peer[59]  lookupTimeSig:vector  ETV
vector 500077  Network.dyn_peer[38]  lookupHopsSig:vector  ETV
vector 500076  Network.dyn_peer[38]  lookupTimeSig:vector  ETV
vector 500129  Network.dyn_peer[64]  lookupHopsSig:vector  ETV
vector 500128  Network.dyn_peer[64]  lookupTimeSig:vector  ETV
vector 500123  Network.dyn_peer[61]  lookupHopsSig:vector  ETV
vector 500122  Network.dyn_peer[61]  lookupTimeSig:vector  ETV
vector 500083  Network.dyn_peer[41]  lookupHopsSig:vector  ETV
vector 500082  Network.dyn_peer[41]  lookupTimeSig:vector  ETV
vector 500135  Network.dyn_peer[67]  lookupHopsSig:vector  ETV
vector 500134  Network.dyn_peer[67]  lookupTimeSig:vector  ETV
vector 500065  Network.dyn_peer[32]  lookupHopsSig:vector  ETV
vector 500064  Network.dyn_peer[32]  lookupTimeSig:vector  ETV
vector 500131  Network.dyn_peer[65]  lookupHopsSig:vector  ETV
vector 500130  Network.dyn_peer[65]  lookupTimeSig:vector  ETV
vector 500125  Network.dyn_peer[62]  lookupHopsSig:vector  ETV
vector 500124  Network.dyn_peer[62]  lookupTimeSig:vector  ETV
vector 500127  Network.dyn_peer[63]  lookupHopsSig:vector  ETV
vector 500126  Network.dyn_peer[63]  lookupTimeSig:vector  ETV
vector 500121  Network.dyn_peer[60]  lookupHopsSig:vector  ETV
vector 500120  Network.dyn_peer[60]  lookupTimeSig:vector  ETV
vector 500149  Network.dyn_peer[74]  lookupHopsSig:vector  ETV
vector 500148  Network.dyn_peer[74]  lookupTimeSig:vector  ETV
vector 500155  Network.dyn_peer[77]  lookupHopsSig:vector  ETV
vector 500154  Network.dyn_peer[77]  lookupTimeSig:vector  ETV
vector 500143  Network.dyn_peer[71]  lookupHopsSig:vector  ETV
vector 500142  Network.dyn_peer[71]  lookupTimeSig:vector  ETV
vector 500139  Network.dyn_peer[69]  lookupHopsSig:vector  ETV
vector 500138  Network.dyn_peer[69]  lookupTimeSig:vector  ETV
vector 500159  Network.dyn_peer[79]  lookupHopsSig:vector  ETV
vector 500158  Network.dyn_peer[79]  lookupTimeSig:vector  ETV
vector 500091  Network.dyn_peer[45]  lookupHopsSig:vector  ETV
vector 500090  Network.dyn_peer[45]  lookupTimeSig:vector  ETV
vector 500145  Network.dyn_peer[72]  lookupHopsSig:vector  ETV
vector 500144  Network.dyn_peer[72]  lookupTimeSig:vector  ETV
vector 500165  Network.dyn_peer[82]  lookupHopsSig:vector  ETV
vector 500164  Network.dyn_peer[82]  lookupTimeSig:vector  ETV
vector 500147  Network.dyn_peer[73]  lookupHopsSig:vector  ETV
vector 500146  Network.dyn_peer[73]  lookupTimeSig:vector  ETV
vector 500113  Network.dyn_peer[56]  lookupHopsSig:vector  ETV
vector 500112  Network.dyn_peer[56]  lookupTimeSig:vector  ETV
vector 500141  Network.dyn_peer[70]  lookupHopsSig:vector  ETV
vector 500140  Network.dyn_peer[70]  lookupTimeSig:vector  ETV
vector 500117  Network.dyn_peer[58]  lookupHopsSig:vector  ETV
vector 500116  Network.dyn_peer[58]  lookupTimeSig:vector  ETV
vector 500169  Network.dyn_peer[84]  lookupHopsSig:vector  ETV
vector 500168  Network.dyn_peer[84]  lookupTimeSig:vector  ETV
vector 500151  Network.dyn_peer[75]  lookupHopsSig:vector  ETV
vector 500150  Network.dyn_peer[75]  lookupTimeSig:vector  ETV
vector 500133  Network.dyn_peer[66]  lookupHopsSig:vector  ETV
vector 500132  Network.dyn_peer[66]  lookupTimeSig:vector  ETV
vector 500193  Network.dyn_peer[96]  lookupHopsSig:vector  ETV
vector 500192  Network.dyn_peer[96]  lookupTimeSig:vector  ETV
vector 500137  Network.dyn_peer[68]  lookupHopsSig:vector  ETV
vector 500136  Network.dyn_peer[68]  lookupTimeSig:vector  ETV
vector 500163  Network.dyn_peer[81]  lookupHopsSig:vector  ETV
vector 500162  Network.dyn_peer[81]  lookupTimeSig:vector  ETV
vector 500167  Network.dyn_peer[83]  lookupHopsSig:vector  ETV
vector 500166  Network.dyn_peer[83]  lookupTimeSig:vector  ETV
vector 500161  Network.dyn_peer[80]  lookupHopsSig:vector  ETV
vector 500160  Network.dyn_peer[80]  lookupTimeSig:vector  ETV
vector 500177  Network.dyn_peer[88]  lookupHopsSig:vector  ETV
vector 500176  Network.dyn_peer[88]  lookupTimeSig:vector  ETV
vector 500191  Network.dyn_peer[95]  lookupHopsSig:vector  ETV
vector 500190  Network.dyn_peer[95]  lookupTimeSig:vector  ETV
vector 500173  Network.dyn_peer[86]  lookupHopsSig:vector  ETV
vector 500172  Network.dyn_peer[86]  lookupTimeSig:vector  ETV
vector 500183  Network.dyn_peer[91]  lookupHopsSig:vector  ETV
vector 500182  Network.dyn_peer[91]  lookupTimeSig:vector  ETV
vector 500171  Network.dyn_peer[85]  lookupHopsSig:vector  ETV
vector 500170  Network.dyn_peer[85]  lookupTimeSig:vector  ETV
vector 500179  Network.dyn_peer[89]  lookupHopsSig:vector  ETV
vector 500178  Network.dyn_peer[89]  lookupTimeSig:vector  ETV
vector 500195  Network.dyn_peer[97]  lookupHopsSig:vector  ETV
vector 500194  Network.dyn_peer[97]  lookupTimeSig:vector  ETV
vector 500157  Network.dyn_peer[78]  lookupHopsSig:vector  ETV
vector 500156  Network.dyn_peer[78]  lookupTimeSig:vector  ETV
vector 500197  Network.dyn_peer[98]  lookupHopsSig:vector  ETV
vector 500196  Network.dyn_peer[98]  lookupTimeSig:vector  ETV
vector 500181  Network.dyn_peer[90]  lookupHopsSig:vector  ETV
vector 500180  Network.dyn_peer[90]  lookupTimeSig:vector  ETV
vector 500207  Network.dyn_peer[103]  lookupHopsSig:vector  ETV
vector 500206  Network.dyn_peer[103]  lookupTimeSig:vector  ETV
vector 500189  Network.dyn_peer[94]  lookupHopsSig:vector  ETV
vector 500188  Network.dyn_peer[94]  lookupTimeSig:vector  ETV
vector 500215  Network.dyn_peer[107]  lookupHopsSig:vector  ETV
vector 500214  Network.dyn_peer[107]  lookupTimeSig:vector  ETV
vector 500199  Network.dyn_peer[99]  lookupHopsSig:vector  ETV
vector 500198  Network.dyn_peer[99]  lookupTimeSig:vector  ETV
vector 500175  Network.dyn_peer[87]  lookupHopsSig:vector  ETV
vector 500174  Network.dyn_peer[87]  lookupTimeSig:vector  ETV
vector 500213  Network.dyn_peer[106]  lookupHopsSig:vector  ETV
vector 500212  Network.dyn_peer[106]  lookupTimeSig:vector  ETV
vector 500185  Network.dyn_peer[92]  lookupHopsSig:vector  ETV
vector 500184  Network.dyn_peer[92]  lookupTimeSig:vector  ETV
vector 500219  Network.dyn_peer[109]  lookupHopsSig:vector  ETV
vector 500218  Network.dyn_peer[109]  lookupTimeSig:vector  ETV
vector 500211  Network.dyn_peer[105]  lookupHopsSig:vector  ETV
vector 500210  Network.dyn_peer[105]  lookupTimeSig:vector  ETV
vector 500253  Network.dyn_peer[126]  lookupHopsSig:vector  ETV
vector 500252  Network.dyn_peer[126]  lookupTimeSig:vector  ETV
vector 500153  Network.dyn_peer[76]  lookupHopsSig:vector  ETV
vector 500152  Network.dyn_peer[76]  lookupTimeSig:vector  ETV
vector 500263  Network.dyn_peer[131]  lookupHopsSig:vector  ETV
vector 500262  Network.dyn_peer[131]  lookupTimeSig:vector  ETV
vector 500257  Network.dyn_peer[128]  lookupHopsSig:vector  ETV
vector 500256  Network.dyn_peer[128]  lookupTimeSig:vector  ETV
vector 500245  Network.dyn_peer[122]  lookupHopsSig:vector  ETV
vector 500244  Network.dyn_peer[122]  lookupTimeSig:vector  ETV
vector 500221  Network.dyn_peer[110]  lookupHopsSig:vector  ETV
vector 500220  Network.dyn_peer[110]  lookupTimeSig:vector  ETV
vector 500267  Network.dyn_peer[133]  lookupHopsSig:vector  ETV
vector 500266  Network.dyn_peer[133]  lookupTimeSig:vector  ETV
vector 500229  Network.dyn_peer[114]  lookupHopsSig:vector  ETV
vector 500228  Network.dyn_peer[114]  lookupTimeSig:vector  ETV
vector 500265  Network.dyn_peer[132]  lookupHopsSig:vector  ETV
vector 500264  Network.dyn_peer[132]  lookupTimeSig:vector  ETV
vector 500223  Network.dyn_peer[111]  lookupHopsSig:vector  ETV
vector 500222  Network.dyn_peer[111]  lookupTimeSig:vector  ETV
vector 500237  Network.dyn_peer[118]  lookupHopsSig:vector  ETV
vector 500236  Network.dyn_peer[118]  lookupTimeSig:vector  ETV
vector 500231  Network.dyn_peer[115]  lookupHopsSig:vector  ETV
vector 500230  Network.dyn_peer[115]  lookupTimeSig:vector  ETV
vector 500187  Network.dyn_peer[93]  lookupHopsSig:vector  ETV
vector 500186  Network.dyn_peer[93]  lookupTimeSig:vector  ETV
vector 500247  Network.dyn_peer[123]  lookupHopsSig:vector  ETV
vector 500246  Network.dyn_peer[123]  lookupTimeSig:vector  ETV
vector 500241  Network.dyn_peer[120]  lookupHopsSig:vector  ETV
vector 500240  Network.dyn_peer[120]  lookupTimeSig:vector  ETV
vector 500243  Network.dyn_peer[121]  lookupHopsSig:vector  ETV
vector 500242  Network.dyn_peer[121]  lookupTimeSig:vector  ETV
vector 500205  Network.dyn_peer[102]  lookupHopsSig:vector  ETV
vector 500204  Network.dyn_peer[102]  lookupTimeSig:vector  ETV
vector 500225  Network.dyn_peer[112]  lookupHopsSig:vector  ETV
vector 500224  Network.dyn_peer[112]  lookupTimeSig:vector  ETV
vector 500201  Network.dyn_peer[100]  lookupHopsSig:vector  ETV
vector 500200  Network.dyn_peer[100]  lookupTimeSig:vector  ETV
vector 500259  Network.dyn_peer[129]  lookupHopsSig:vector  ETV
vector 500258  Network.dyn_peer[129]  lookupTimeSig:vector  ETV
vector 500235  Network.dyn_peer[117]  lookupHopsSig:vector  ETV
vector 500234  Network.dyn_peer[117]  lookupTimeSig:vector  ETV
vector 500227  Network.dyn_peer[113]  lookupHopsSig:vector  ETV
vector 500226  Network.dyn_peer[113]  lookupTimeSig:vector  ETV
vector 500203  Network.dyn_peer[101]  lookupHopsSig:vector  ETV
vector 500202  Network.dyn_peer[101]  lookupTimeSig:vector  ETV
vector 500255  Network.dyn_peer[127]  lookupHopsSig:vector  ETV
vector 500254  Network.dyn_peer[127]  lookupTimeSig:vector  ETV
vector 500275  Network.dyn_peer[137]  lookupHopsSig:vector  ETV
vector 500274  Network.dyn_peer[137]  lookupTimeSig:vector  ETV
vector 500277  Network.dyn_peer[138]  lookupHopsSig:vector  ETV
vector 500276  Network.dyn_peer[138]  lookupTimeSig:vector  ETV
vector 500281  Network.dyn_peer[140]  lookupHopsSig:vector  ETV
vector 500280  Network.dyn_peer[140]  lookupTimeSig:vector  ETV
vector 500269  Network.dyn_peer[134]  lookupHopsSig:vector  ETV
vector 500268  Network.dyn_peer[134]  lookupTimeSig:vector  ETV
vector 500251  Network.dyn_peer[125]  lookupHopsSig:vector  ETV
vector 500250  Network.dyn_peer[125]  lookupTimeSig:vector  ETV
vector 500233  Network.dyn_peer[116]  lookupHopsSig:vector  ETV
vector 500232  Network.dyn_peer[116]  lookupTimeSig:vector  ETV
vector 500297  Network.dyn_peer[148]  lookupHopsSig:vector  ETV
vector 500296  Network.dyn_peer[148]  lookupTimeSig:vector  ETV
vector 500261  Network.dyn_peer[130]  lookupHopsSig:vector  ETV
vector 500260  Network.dyn_peer[130]  lookupTimeSig:vector  ETV
vector 500217  Network.dyn_peer[108]  lookupHopsSig:vector  ETV
vector 500216  Network.dyn_peer[108]  lookupTimeSig:vector  ETV
vector 500309  Network.dyn_peer[154]  lookupHopsSig:vector  ETV
vector 500308  Network.dyn_peer[154]  lookupTimeSig:vector  ETV
vector 500239  Network.dyn_peer[119]  lookupHopsSig:vector  ETV
vector 500238  Network.dyn_peer[119]  lookupTimeSig:vector  ETV
vector 500311  Network.dyn_peer[155]  lookupHopsSig:vector  ETV
vector 500310  Network.dyn_peer[155]  lookupTimeSig:vector  ETV
vector 500305  Network.dyn_peer[152]  lookupHopsSig:vector  ETV
vector 500304  Network.dyn_peer[152]  lookupTimeSig:vector  ETV
vector 500299  Network.dyn_peer[149]  lookupHopsSig:vector  ETV
vector 500298  Network.dyn_peer[149]  lookupTimeSig:vector  ETV
vector 500209  Network.dyn_peer[104]  lookupHopsSig:vector  ETV
vector 500208  Network.dyn_peer[104]  lookupTimeSig:vector  ETV
vector 500293  Network.dyn_peer[146]  lookupHopsSig:vector  ETV
vector 500292  Network.dyn_peer[146]  lookupTimeSig:vector  ETV
vector 500285  Network.dyn_peer[142]  lookupHopsSig:vector  ETV
vector 500284  Network.dyn_peer[142]  lookupTimeSig:vector  ETV
vector 500273  Network.dyn_peer[136]  lookupHopsSig:vector  ETV
vector 500272  Network.dyn_peer[136]  lookupTimeSig:vector  ETV
vector 500307  Network.dyn_peer[153]  lookupHopsSig:vector  ETV
vector 500306  Network.dyn_peer[153]  lookupTimeSig:vector  ETV
vector 500283  Network.dyn_peer[141]  lookupHopsSig:vector  ETV
vector 500282  Network.dyn_peer[141]  lookupTimeSig:vector  ETV
vector 500325  Network.dyn_peer[162]  lookupHopsSig:vector  ETV
vector 500324  Network.dyn_peer[162]  lookupTimeSig:vector  ETV
vector 500249  Network.dyn_peer[124]  lookupHopsSig:vector  ETV
vector 500248  Network.dyn_peer[124]  lookupTimeSig:vector  ETV
vector 500313  Network.dyn_peer[156]  lookupHopsSig:vector  ETV
vector 500312  Network.dyn_peer[156]  lookupTimeSig:vector  ETV
vector 500289  Network.dyn_peer[144]  lookupHopsSig:vector  ETV
vector 500288  Network.dyn_peer[144]  lookupTimeSig:vector  ETV
vector 500321  Network.dyn_peer[160]  lookupHopsSig:vector  ETV
vector 500320  Network.dyn_peer[160]  lookupTimeSig:vector  ETV
vector 500279  Network.dyn_peer[139]  lookupHopsSig:vector  ETV
vector 500278  Network.dyn_peer[139]  lookupTimeSig:vector  ETV
vector 500337  Network.dyn_peer[168]  lookupHopsSig:vector  ETV
vector 500336  Network.dyn_peer[168]  lookupTimeSig:vector  ETV
vector 500319  Network.dyn_peer[159]  lookupHopsSig:vector  ETV
vector 500318  Network.dyn_peer[159]  lookupTimeSig:vector  ETV
vector 500315  Network.dyn_peer[157]  lookupHopsSig:vector  ETV
vector 500314  Network.dyn_peer[157]  lookupTimeSig:vector  ETV
vector 500271  Network.dyn_peer[135]  lookupHopsSig:vector  ETV
vector 500270  Network.dyn_peer[135]  lookupTimeSig:vector  ETV
vector 500357  Network.dyn_peer[178]  lookupHopsSig:vector  ETV
vector 500356  Network.dyn_peer[178]  lookupTimeSig:vector  ETV
vector 500287  Network.dyn_peer[143]  lookupHopsSig:vector  ETV
vector 500286  Network.dyn_peer[143]  lookupTimeSig:vector  ETV
vector 500291  Network.dyn_peer[145]  lookupHopsSig:vector  ETV
vector 500290  Network.dyn_peer[145]  lookupTimeSig:vector  ETV
vector 500347  Network.dyn_peer[173]  lookupHopsSig:vector  ETV
vector 500346  Network.dyn_peer[173]  lookupTimeSig:vector  ETV
vector 500345  Network.dyn_peer[172]  lookupHopsSig:vector  ETV
vector 500344  Network.dyn_peer[172]  lookupTimeSig:vector  ETV
vector 500317  Network.dyn_peer[158]  lookupHopsSig:vector  ETV
vector 500316  Network.dyn_peer[158]  lookupTimeSig:vector  ETV
vector 500343  Network.dyn_peer[171]  lookupHopsSig:vector  ETV
vector 500342  Network.dyn_peer[171]  lookupTimeSig:vector  ETV
vector 500339  Network.dyn_peer[169]  lookupHopsSig:vector  ETV
vector 500338  Network.dyn_peer[169]  lookupTimeSig:vector  ETV
vector 500395  Network.dyn_peer[197]  lookupHopsSig:vector  ETV
vector 500394  Network.dyn_peer[197]  lookupTimeSig:vector  ETV
vector 500341  Network.dyn_peer[170]  lookupHopsSig:vector  ETV
vector 500340  Network.dyn_peer[170]  lookupTimeSig:vector  ETV
vector 500323  Network.dyn_peer[161]  lookupHopsSig:vector  ETV
vector 500322  Network.dyn_peer[161]  lookupTimeSig:vector  ETV
vector 500379  Network.dyn_peer[189]  lookupHopsSig:vector  ETV
vector 500378  Network.dyn_peer[189]  lookupTimeSig:vector  ETV
vector 500373  Network.dyn_peer[186]  lookupHopsSig:vector  ETV
vector 500372  Network.dyn_peer[186]  lookupTimeSig:vector  ETV
vector 500335  Network.dyn_peer[167]  lookupHopsSig:vector  ETV
vector 500334  Network.dyn_peer[167]  lookupTimeSig:vector  ETV
vector 500331  Network.dyn_peer[165]  lookupHopsSig:vector  ETV
vector 500330  Network.dyn_peer[165]  lookupTimeSig:vector  ETV
vector 500383  Network.dyn_peer[191]  lookupHopsSig:vector  ETV
vector 500382  Network.dyn_peer[191]  lookupTimeSig:vector  ETV
vector 500377  Network.dyn_peer[188]  lookupHopsSig:vector  ETV
vector 500376  Network.dyn_peer[188]  lookupTimeSig:vector  ETV
vector 500359  Network.dyn_peer[179]  lookupHopsSig:vector  ETV
vector 500358  Network.dyn_peer[179]  lookupTimeSig:vector  ETV
vector 500391  Network.dyn_peer[195]  lookupHopsSig:vector  ETV
vector 500390  Network.dyn_peer[195]  lookupTimeSig:vector  ETV
vector 500351  Network.dyn_peer[175]  lookupHopsSig:vector  ETV
vector 500350  Network.dyn_peer[175]  lookupTimeSig:vector  ETV
vector 500405  Network.dyn_peer[202]  lookupHopsSig:vector  ETV
vector 500404  Network.dyn_peer[202]  lookupTimeSig:vector  ETV
vector 500303  Network.dyn_peer[151]  lookupHopsSig:vector  ETV
vector 500302  Network.dyn_peer[151]  lookupTimeSig:vector  ETV
vector 500349  Network.dyn_peer[174]  lookupHopsSig:vector  ETV
vector 500348  Network.dyn_peer[174]  lookupTimeSig:vector  ETV
vector 500363  Network.dyn_peer[181]  lookupHopsSig:vector  ETV
vector 500362  Network.dyn_peer[181]  lookupTimeSig:vector  ETV
vector 500361  Network.dyn_peer[180]  lookupHopsSig:vector  ETV
vector 500360  Network.dyn_peer[180]  lookupTimeSig:vector  ETV
vector 500381  Network.dyn_peer[190]  lookupHopsSig:vector  ETV
vector 500380  Network.dyn_peer[190]  lookupTimeSig:vector  ETV
vector 500409  Network.dyn_peer[204]  lookupHopsSig:vector  ETV
vector 500408  Network.dyn_peer[204]  lookupTimeSig:vector  ETV
vector 500353  Network.dyn_peer[176]  lookupHopsSig:vector  ETV
vector 500352  Network.dyn_peer[176]  lookupTimeSig:vector  ETV
vector 500415  Network.dyn_peer[207]  lookupHopsSig:vector  ETV
vector 500414  Network.dyn_peer[207]  lookupTimeSig:vector  ETV
vector 500367  Network.dyn_peer[183]  lookupHopsSig:vector  ETV
vector 500366  Network.dyn_peer[183]  lookupTimeSig:vector  ETV
vector 500399  Network.dyn_peer[199]  lookupHopsSig:vector  ETV
vector 500398  Network.dyn_peer[199]  lookupTimeSig:vector  ETV
vector 500355  Network.dyn_peer[177]  lookupHopsSig:vector  ETV
vector 500354  Network.dyn_peer[177]  lookupTimeSig:vector  ETV
vector 500387  Network.dyn_peer[193]  lookupHopsSig:vector  ETV
vector 500386  Network.dyn_peer[193]  lookupTimeSig:vector  ETV
vector 500333  Network.dyn_peer[166]  lookupHopsSig:vector  ETV
vector 500332  Network.dyn_peer[166]  lookupTimeSig:vector  ETV
vector 500365  Network.dyn_peer[182]  lookupHopsSig:vector  ETV
vector 500364  Network.dyn_peer[182]  lookupTimeSig:vector  ETV
vector 500393  Network.dyn_peer[196]  lookupHopsSig:vector  ETV
vector 500392  Network.dyn_peer[196]  lookupTimeSig:vector  ETV
vector 500425  Network.dyn_peer[212]  lookupHopsSig:vector  ETV
vector 500424  Network.dyn_peer[212]  lookupTimeSig:vector  ETV
vector 500327  Network.dyn_peer[163]  lookupHopsSig:vector  ETV
vector 500326  Network.dyn_peer[163]  lookupTimeSig:vector  ETV
vector 500417  Network.dyn_peer[208]  lookupHopsSig:vector  ETV
vector 500416  Network.dyn_peer[208]  lookupTimeSig:vector  ETV
vector 500431  Network.dyn_peer[215]  lookupHopsSig:vector  ETV
vector 500430  Network.dyn_peer[215]  lookupTimeSig:vector  ETV
vector 500421  Network.dyn_peer[210]  lookupHopsSig:vector  ETV
vector 500420  Network.dyn_peer[210]  lookupTimeSig:vector  ETV
vector 500403  Network.dyn_peer[201]  lookupHopsSig:vector  ETV
vector 500402  Network.dyn_peer[201]  lookupTimeSig:vector  ETV
vector 500401  Network.dyn_peer[200]  lookupHopsSig:vector  ETV
vector 500400  Network.dyn_peer[200]  lookupTimeSig:vector  ETV
vector 500389  Network.dyn_peer[194]  lookupHopsSig:vector  ETV
vector 500388  Network.dyn_peer[194]  lookupTimeSig:vector  ETV
vector 500447  Network.dyn_peer[223]  lookupHopsSig:vector  ETV
vector 500446  Network.dyn_peer[223]  lookupTimeSig:vector  ETV
vector 500457  Network.dyn_peer[228]  lookupHopsSig:vector  ETV
vector 500456  Network.dyn_peer[228]  lookupTimeSig:vector  ETV
vector 500413  Network.dyn_peer[206]  lookupHopsSig:vector  ETV
vector 500412  Network.dyn_peer[206]  lookupTimeSig:vector  ETV
vector 500375  Network.dyn_peer[187]  lookupHopsSig:vector  ETV
vector 500374  Network.dyn_peer[187]  lookupTimeSig:vector  ETV
vector 500301  Network.dyn_peer[150]  lookupHopsSig:vector  ETV
vector 500300  Network.dyn_peer[150]  lookupTimeSig:vector  ETV
vector 500329  Network.dyn_peer[164]  lookupHopsSig:vector  ETV
vector 500328  Network.dyn_peer[164]  lookupTimeSig:vector  ETV
vector 500423  Network.dyn_peer[211]  lookupHopsSig:vector  ETV
vector 500422  Network.dyn_peer[211]  lookupTimeSig:vector  ETV
vector 500479  Network.dyn_peer[239]  lookupHopsSig:vector  ETV
vector 500478  Network.dyn_peer[239]  lookupTimeSig:vector  ETV
vector 500295  Network.dyn_peer[147]  lookupHopsSig:vector  ETV
vector 500294  Network.dyn_peer[147]  lookupTimeSig:vector  ETV
vector 500411  Network.dyn_peer[205]  lookupHopsSig:vector  ETV
vector 500410  Network.dyn_peer[205]  lookupTimeSig:vector  ETV
vector 500437  Network.dyn_peer[218]  lookupHopsSig:vector  ETV
vector 500436  Network.dyn_peer[218]  lookupTimeSig:vector  ETV
vector 500467  Network.dyn_peer[233]  lookupHopsSig:vector  ETV
vector 500466  Network.dyn_peer[233]  lookupTimeSig:vector  ETV
vector 500495  Network.dyn_peer[247]  lookupHopsSig:vector  ETV
vector 500494  Network.dyn_peer[247]  lookupTimeSig:vector  ETV
vector 500419  Network.dyn_peer[209]  lookupHopsSig:vector  ETV
vector 500418  Network.dyn_peer[209]  lookupTimeSig:vector  ETV
vector 500465  Network.dyn_peer[232]  lookupHopsSig:vector  ETV
vector 500464  Network.dyn_peer[232]  lookupTimeSig:vector  ETV
vector 500441  Network.dyn_peer[220]  lookupHopsSig:vector  ETV
vector 500440  Network.dyn_peer[220]  lookupTimeSig:vector  ETV
vector 500499  Network.dyn_peer[249]  lookupHopsSig:vector  ETV
vector 500498  Network.dyn_peer[249]  lookupTimeSig:vector  ETV
vector 500451  Network.dyn_peer[225]  lookupHopsSig:vector  ETV
vector 500450  Network.dyn_peer[225]  lookupTimeSig:vector  ETV
vector 500433  Network.dyn_peer[216]  lookupHopsSig:vector  ETV
vector 500432  Network.dyn_peer[216]  lookupTimeSig:vector  ETV
vector 500397  Network.dyn_peer[198]  lookupHopsSig:vector  ETV
vector 500396  Network.dyn_peer[198]  lookupTimeSig:vector  ETV
vector 500481  Network.dyn_peer[240]  lookupHopsSig:vector  ETV
vector 500480  Network.dyn_peer[240]  lookupTimeSig:vector  ETV
vector 500483  Network.dyn_peer[241]  lookupHopsSig:vector  ETV
vector 500482  Network.dyn_peer[241]  lookupTimeSig:vector  ETV
vector 500407  Network.dyn_peer[203]  lookupHopsSig:vector  ETV
vector 500406  Network.dyn_peer[203]  lookupTimeSig:vector  ETV
vector 500439  Network.dyn_peer[219]  lookupHopsSig:vector  ETV
vector 500438  Network.dyn_peer[219]  lookupTimeSig:vector  ETV
vector 500485  Network.dyn_peer[242]  lookupHopsSig:vector  ETV
vector 500484  Network.dyn_peer[242]  lookupTimeSig:vector  ETV
vector 500511  Network.dyn_peer[255]  lookupHopsSig:vector  ETV
vector 500510  Network.dyn_peer[255]  lookupTimeSig:vector  ETV
vector 500493  Network.dyn_peer[246]  lookupHopsSig:vector  ETV
vector 500492  Network.dyn_peer[246]  lookupTimeSig:vector  ETV
vector 500445  Network.dyn_peer[222]  lookupHopsSig:vector  ETV
vector 500444  Network.dyn_peer[222]  lookupTimeSig:vector  ETV
vector 500477  Network.dyn_peer[238]  lookupHopsSig:vector  ETV
vector 500476  Network.dyn_peer[238]  lookupTimeSig:vector  ETV
vector 500473  Network.dyn_peer[236]  lookupHopsSig:vector  ETV
vector 500472  Network.dyn_peer[236]  lookupTimeSig:vector  ETV
vector 500449  Network.dyn_peer[224]  lookupHopsSig:vector  ETV
vector 500448  Network.dyn_peer[224]  lookupTimeSig:vector  ETV