version 2
run Stability-30-20130521-22:24:08-23591
attr configname Stability
attr datetime 20130521-22:24:08
attr experiment Stability
attr inifile omnetpp.ini
attr iterationvars $0=4
attr iterationvars2 "$0=4, $repetition=0"
attr measurement $0=4
attr network Network
attr processid 23591
attr repetition 0
attr replication #0
attr resultdir results
attr runnumber 30
attr seedset 30

vector 60001  Network.dyn_peer[0]  lookupHopsSig:vector  ETV
vector 60000  Network.dyn_peer[0]  lookupTimeSig:vector  ETV
vector 60003  Network.dyn_peer[1]  lookupHopsSig:vector  ETV
vector 60002  Network.dyn_peer[1]  lookupTimeSig:vector  ETV
vector 60005  Network.dyn_peer[2]  lookupHopsSig:vector  ETV
vector 60004  Network.dyn_peer[2]  lookupTimeSig:vector  ETV
vector 60007  Network.dyn_peer[3]  lookupHopsSig:vector  ETV
vector 60006  Network.dyn_peer[3]  lookupTimeSig:vector  ETV
vector 60009  Network.dyn_peer[4]  lookupHopsSig:vector  ETV
vector 60008  Network.dyn_peer[4]  lookupTimeSig:vector  ETV
vector 60011  Network.dyn_peer[5]  lookupHopsSig:vector  ETV
vector 60010  Network.dyn_peer[5]  lookupTimeSig:vector  ETV
vector 60013  Network.dyn_peer[6]  lookupHopsSig:vector  ETV
vector 60012  Network.dyn_peer[6]  lookupTimeSig:vector  ETV
vector 60015  Network.dyn_peer[7]  lookupHopsSig:vector  ETV
vector 60014  Network.dyn_peer[7]  lookupTimeSig:vector  ETV
vector 60017  Network.dyn_peer[8]  lookupHopsSig:vector  ETV
vector 60016  Network.dyn_peer[8]  lookupTimeSig:vector  ETV
vector 60019  Network.dyn_peer[9]  lookupHopsSig:vector  ETV
vector 60018  Network.dyn_peer[9]  lookupTimeSig:vector  ETV
vector 60021  Network.dyn_peer[10]  lookupHopsSig:vector  ETV
vector 60020  Network.dyn_peer[10]  lookupTimeSig:vector  ETV
vector 60023  Network.dyn_peer[11]  lookupHopsSig:vector  ETV
vector 60022  Network.dyn_peer[11]  lookupTimeSig:vector  ETV
vector 60025  Network.dyn_peer[12]  lookupHopsSig:vector  ETV
vector 60024  Network.dyn_peer[12]  lookupTimeSig:vector  ETV
vector 60027  Network.dyn_peer[13]  lookupHopsSig:vector  ETV
vector 60026  Network.dyn_peer[13]  lookupTimeSig:vector  ETV
vector 60029  Network.dyn_peer[14]  lookupHopsSig:vector  ETV
vector 60028  Network.dyn_peer[14]  lookupTimeSig:vector  ETV
vector 60031  Network.dyn_peer[15]  lookupHopsSig:vector  ETV
vector 60030  Network.dyn_peer[15]  lookupTimeSig:vector  ETV
vector 60033  Network.dyn_peer[16]  lookupHopsSig:vector  ETV
vector 60032  Network.dyn_peer[16]  lookupTimeSig:vector  ETV
vector 60035  Network.dyn_peer[17]  lookupHopsSig:vector  ETV
vector 60034  Network.dyn_peer[17]  lookupTimeSig:vector  ETV
vector 60037  Network.dyn_peer[18]  lookupHopsSig:vector  ETV
vector 60036  Network.dyn_peer[18]  lookupTimeSig:vector  ETV
vector 60039  Network.dyn_peer[19]  lookupHopsSig:vector  ETV
vector 60038  Network.dyn_peer[19]  lookupTimeSig:vector  ETV
vector 60041  Network.dyn_peer[20]  lookupHopsSig:vector  ETV
vector 60040  Network.dyn_peer[20]  lookupTimeSig:vector  ETV
vector 60043  Network.dyn_peer[21]  lookupHopsSig:vector  ETV
vector 60042  Network.dyn_peer[21]  lookupTimeSig:vector  ETV
vector 60045  Network.dyn_peer[22]  lookupHopsSig:vector  ETV
vector 60044  Network.dyn_peer[22]  lookupTimeSig:vector  ETV
vector 60047  Network.dyn_peer[23]  lookupHopsSig:vector  ETV
vector 60046  Network.dyn_peer[23]  lookupTimeSig:vector  ETV
vector 60049  Network.dyn_peer[24]  lookupHopsSig:vector  ETV
vector 60048  Network.dyn_peer[24]  lookupTimeSig:vector  ETV
vector 60051  Network.dyn_peer[25]  lookupHopsSig:vector  ETV
vector 60050  Network.dyn_peer[25]  lookupTimeSig:vector  ETV
vector 60053  Network.dyn_peer[26]  lookupHopsSig:vector  ETV
vector 60052  Network.dyn_peer[26]  lookupTimeSig:vector  ETV
vector 60055  Network.dyn_peer[27]  lookupHopsSig:vector  ETV
vector 60054  Network.dyn_peer[27]  lookupTimeSig:vector  ETV
vector 60057  Network.dyn_peer[28]  lookupHopsSig:vector  ETV
vector 60056  Network.dyn_peer[28]  lookupTimeSig:vector  ETV
vector 60059  Network.dyn_peer[29]  lookupHopsSig:vector  ETV
vector 60058  Network.dyn_peer[29]  lookupTimeSig:vector  ETV
vector 60061  Network.dyn_peer[30]  lookupHopsSig:vector  ETV
vector 60060  Network.dyn_peer[30]  lookupTimeSig:vector  ETV
vector 60063  Network.dyn_peer[31]  lookupHopsSig:vector  ETV
vector 60062  Network.dyn_peer[31]  lookupTimeSig:vector  ETV
vector 60065  Network.dyn_peer[32]  lookupHopsSig:vector  ETV
vector 60064  Network.dyn_peer[32]  lookupTimeSig:vector  ETV
vector 60067  Network.dyn_peer[33]  lookupHopsSig:vector  ETV
vector 60066  Network.dyn_peer[33]  lookupTimeSig:vector  ETV
vector 60069  Network.dyn_peer[34]  lookupHopsSig:vector  ETV
vector 60068  Network.dyn_peer[34]  lookupTimeSig:vector  ETV
vector 60071  Network.dyn_peer[35]  lookupHopsSig:vector  ETV
vector 60070  Network.dyn_peer[35]  lookupTimeSig:vector  ETV
vector 60073  Network.dyn_peer[36]  lookupHopsSig:vector  ETV
vector 60072  Network.dyn_peer[36]  lookupTimeSig:vector  ETV
vector 60075  Network.dyn_peer[37]  lookupHopsSig:vector  ETV
vector 60074  Network.dyn_peer[37]  lookupTimeSig:vector  ETV
vector 60077  Network.dyn_peer[38]  lookupHopsSig:vector  ETV
vector 60076  Network.dyn_peer[38]  lookupTimeSig:vector  ETV
vector 60079  Network.dyn_peer[39]  lookupHopsSig:vector  ETV
vector 60078  Network.dyn_peer[39]  lookupTimeSig:vector  ETV
vector 60081  Network.dyn_peer[40]  lookupHopsSig:vector  ETV
vector 60080  Network.dyn_peer[40]  lookupTimeSig:vector  ETV
vector 60083  Network.dyn_peer[41]  lookupHopsSig:vector  ETV
vector 60082  Network.dyn_peer[41]  lookupTimeSig:vector  ETV
vector 60085  Network.dyn_peer[42]  lookupHopsSig:vector  ETV
vector 60084  Network.dyn_peer[42]  lookupTimeSig:vector  ETV
vector 60087  Network.dyn_peer[43]  lookupHopsSig:vector  ETV
vector 60086  Network.dyn_peer[43]  lookupTimeSig:vector  ETV
vector 60089  Network.dyn_peer[44]  lookupHopsSig:vector  ETV
vector 60088  Network.dyn_peer[44]  lookupTimeSig:vector  ETV
vector 60091  Network.dyn_peer[45]  lookupHopsSig:vector  ETV
vector 60090  Network.dyn_peer[45]  lookupTimeSig:vector  ETV
vector 60093  Network.dyn_peer[46]  lookupHopsSig:vector  ETV
vector 60092  Network.dyn_peer[46]  lookupTimeSig:vector  ETV
vector 60095  Network.dyn_peer[47]  lookupHopsSig:vector  ETV
vector 60094  Network.dyn_peer[47]  lookupTimeSig:vector  ETV
vector 60097  Network.dyn_peer[48]  lookupHopsSig:vector  ETV
vector 60096  Network.dyn_peer[48]  lookupTimeSig:vector  ETV
vector 60099  Network.dyn_peer[49]  lookupHopsSig:vector  ETV
vector 60098  Network.dyn_peer[49]  lookupTimeSig:vector  ETV
vector 60101  Network.dyn_peer[50]  lookupHopsSig:vector  ETV
vector 60100  Network.dyn_peer[50]  lookupTimeSig:vector  ETV
vector 60103  Network.dyn_peer[51]  lookupHopsSig:vector  ETV
vector 60102  Network.dyn_peer[51]  lookupTimeSig:vector  ETV
vector 60105  Network.dyn_peer[52]  lookupHopsSig:vector  ETV
vector 60104  Network.dyn_peer[52]  lookupTimeSig:vector  ETV
vector 60107  Network.dyn_peer[53]  lookupHopsSig:vector  ETV
vector 60106  Network.dyn_peer[53]  lookupTimeSig:vector  ETV
vector 60109  Network.dyn_peer[54]  lookupHopsSig:vector  ETV
vector 60108  Network.dyn_peer[54]  lookupTimeSig:vector  ETV
vector 60111  Network.dyn_peer[55]  lookupHopsSig:vector  ETV
vector 60110  Network.dyn_peer[55]  lookupTimeSig:vector  ETV
vector 60113  Network.dyn_peer[56]  lookupHopsSig:vector  ETV
vector 60112  Network.dyn_peer[56]  lookupTimeSig:vector  ETV
vector 60115  Network.dyn_peer[57]  lookupHopsSig:vector  ETV
vector 60114  Network.dyn_peer[57]  lookupTimeSig:vector  ETV
vector 60117  Network.dyn_peer[58]  lookupHopsSig:vector  ETV
vector 60116  Network.dyn_peer[58]  lookupTimeSig:vector  ETV
vector 60119  Network.dyn_peer[59]  lookupHopsSig:vector  ETV
vector 60118  Network.dyn_peer[59]  lookupTimeSig:vector  ETV
vector 60121  Network.dyn_peer[60]  lookupHopsSig:vector  ETV
vector 60120  Network.dyn_peer[60]  lookupTimeSig:vector  ETV
vector 60123  Network.dyn_peer[61]  lookupHopsSig:vector  ETV
vector 60122  Network.dyn_peer[61]  lookupTimeSig:vector  ETV
vector 60125  Network.dyn_peer[62]  lookupHopsSig:vector  ETV
vector 60124  Network.dyn_peer[62]  lookupTimeSig:vector  ETV
vector 60127  Network.dyn_peer[63]  lookupHopsSig:vector  ETV
vector 60126  Network.dyn_peer[63]  lookupTimeSig:vector  ETV
vector 60129  Network.dyn_peer[64]  lookupHopsSig:vector  ETV
vector 60128  Network.dyn_peer[64]  lookupTimeSig:vector  ETV
vector 60131  Network.dyn_peer[65]  lookupHopsSig:vector  ETV
vector 60130  Network.dyn_peer[65]  lookupTimeSig:vector  ETV
vector 60133  Network.dyn_peer[66]  lookupHopsSig:vector  ETV
vector 60132  Network.dyn_peer[66]  lookupTimeSig:vector  ETV
vector 60135  Network.dyn_peer[67]  lookupHopsSig:vector  ETV
vector 60134  Network.dyn_peer[67]  lookupTimeSig:vector  ETV
vector 60137  Network.dyn_peer[68]  lookupHopsSig:vector  ETV
vector 60136  Network.dyn_peer[68]  lookupTimeSig:vector  ETV
vector 60139  Network.dyn_peer[69]  lookupHopsSig:vector  ETV
vector 60138  Network.dyn_peer[69]  lookupTimeSig:vector  ETV
vector 60141  Network.dyn_peer[70]  lookupHopsSig:vector  ETV
vector 60140  Network.dyn_peer[70]  lookupTimeSig:vector  ETV
vector 60143  Network.dyn_peer[71]  lookupHopsSig:vector  ETV
vector 60142  Network.dyn_peer[71]  lookupTimeSig:vector  ETV
vector 60145  Network.dyn_peer[72]  lookupHopsSig:vector  ETV
vector 60144  Network.dyn_peer[72]  lookupTimeSig:vector  ETV
vector 60147  Network.dyn_peer[73]  lookupHopsSig:vector  ETV
vector 60146  Network.dyn_peer[73]  lookupTimeSig:vector  ETV
vector 60149  Network.dyn_peer[74]  lookupHopsSig:vector  ETV
vector 60148  Network.dyn_peer[74]  lookupTimeSig:vector  ETV
vector 60151  Network.dyn_peer[75]  lookupHopsSig:vector  ETV
vector 60150  Network.dyn_peer[75]  lookupTimeSig:vector  ETV
vector 60153  Network.dyn_peer[76]  lookupHopsSig:vector  ETV
vector 60152  Network.dyn_peer[76]  lookupTimeSig:vector  ETV
vector 60155  Network.dyn_peer[77]  lookupHopsSig:vector  ETV
vector 60154  Network.dyn_peer[77]  lookupTimeSig:vector  ETV
vector 60157  Network.dyn_peer[78]  lookupHopsSig:vector  ETV
vector 60156  Network.dyn_peer[78]  lookupTimeSig:vector  ETV
vector 60159  Network.dyn_peer[79]  lookupHopsSig:vector  ETV
vector 60158  Network.dyn_peer[79]  lookupTimeSig:vector  ETV
vector 60161  Network.dyn_peer[80]  lookupHopsSig:vector  ETV
vector 60160  Network.dyn_peer[80]  lookupTimeSig:vector  ETV
vector 60163  Network.dyn_peer[81]  lookupHopsSig:vector  ETV
vector 60162  Network.dyn_peer[81]  lookupTimeSig:vector  ETV
vector 60165  Network.dyn_peer[82]  lookupHopsSig:vector  ETV
vector 60164  Network.dyn_peer[82]  lookupTimeSig:vector  ETV
vector 60167  Network.dyn_peer[83]  lookupHopsSig:vector  ETV
vector 60166  Network.dyn_peer[83]  lookupTimeSig:vector  ETV
vector 60169  Network.dyn_peer[84]  lookupHopsSig:vector  ETV
vector 60168  Network.dyn_peer[84]  lookupTimeSig:vector  ETV
vector 60171  Network.dyn_peer[85]  lookupHopsSig:vector  ETV
vector 60170  Network.dyn_peer[85]  lookupTimeSig:vector  ETV
vector 60173  Network.dyn_peer[86]  lookupHopsSig:vector  ETV
vector 60172  Network.dyn_peer[86]  lookupTimeSig:vector  ETV
vector 60175  Network.dyn_peer[87]  lookupHopsSig:vector  ETV
vector 60174  Network.dyn_peer[87]  lookupTimeSig:vector  ETV
vector 60177  Network.dyn_peer[88]  lookupHopsSig:vector  ETV
vector 60176  Network.dyn_peer[88]  lookupTimeSig:vector  ETV
vector 60179  Network.dyn_peer[89]  lookupHopsSig:vector  ETV
vector 60178  Network.dyn_peer[89]  lookupTimeSig:vector  ETV
vector 60181  Network.dyn_peer[90]  lookupHopsSig:vector  ETV
vector 60180  Network.dyn_peer[90]  lookupTimeSig:vector  ETV
vector 60183  Network.dyn_peer[91]  lookupHopsSig:vector  ETV
vector 60182  Network.dyn_peer[91]  lookupTimeSig:vector  ETV
vector 60185  Network.dyn_peer[92]  lookupHopsSig:vector  ETV
vector 60184  Network.dyn_peer[92]  lookupTimeSig:vector  ETV
vector 60187  Network.dyn_peer[93]  lookupHopsSig:vector  ETV
vector 60186  Network.dyn_peer[93]  lookupTimeSig:vector  ETV
vector 60189  Network.dyn_peer[94]  lookupHopsSig:vector  ETV
vector 60188  Network.dyn_peer[94]  lookupTimeSig:vector  ETV
vector 60191  Network.dyn_peer[95]  lookupHopsSig:vector  ETV
vector 60190  Network.dyn_peer[95]  lookupTimeSig:vector  ETV
vector 60193  Network.dyn_peer[96]  lookupHopsSig:vector  ETV
vector 60192  Network.dyn_peer[96]  lookupTimeSig:vector  ETV
vector 60195  Network.dyn_peer[97]  lookupHopsSig:vector  ETV
vector 60194  Network.dyn_peer[97]  lookupTimeSig:vector  ETV
vector 60197  Network.dyn_peer[98]  lookupHopsSig:vector  ETV
vector 60196  Network.dyn_peer[98]  lookupTimeSig:vector  ETV
vector 60199  Network.dyn_peer[99]  lookupHopsSig:vector  ETV
vector 60198  Network.dyn_peer[99]  lookupTimeSig:vector  ETV
vector 60201  Network.dyn_peer[100]  lookupHopsSig:vector  ETV
vector 60200  Network.dyn_peer[100]  lookupTimeSig:vector  ETV
vector 60203  Network.dyn_peer[101]  lookupHopsSig:vector  ETV
vector 60202  Network.dyn_peer[101]  lookupTimeSig:vector  ETV
vector 60205  Network.dyn_peer[102]  lookupHopsSig:vector  ETV
vector 60204  Network.dyn_peer[102]  lookupTimeSig:vector  ETV
vector 60207  Network.dyn_peer[103]  lookupHopsSig:vector  ETV
vector 60206  Network.dyn_peer[103]  lookupTimeSig:vector  ETV
vector 60209  Network.dyn_peer[104]  lookupHopsSig:vector  ETV
vector 60208  Network.dyn_peer[104]  lookupTimeSig:vector  ETV
vector 60211  Network.dyn_peer[105]  lookupHopsSig:vector  ETV
vector 60210  Network.dyn_peer[105]  lookupTimeSig:vector  ETV
vector 60213  Network.dyn_peer[106]  lookupHopsSig:vector  ETV
vector 60212  Network.dyn_peer[106]  lookupTimeSig:vector  ETV
vector 60215  Network.dyn_peer[107]  lookupHopsSig:vector  ETV
vector 60214  Network.dyn_peer[107]  lookupTimeSig:vector  ETV
vector 60217  Network.dyn_peer[108]  lookupHopsSig:vector  ETV
vector 60216  Network.dyn_peer[108]  lookupTimeSig:vector  ETV
vector 60219  Network.dyn_peer[109]  lookupHopsSig:vector  ETV
vector 60218  Network.dyn_peer[109]  lookupTimeSig:vector  ETV
vector 60221  Network.dyn_peer[110]  lookupHopsSig:vector  ETV
vector 60220  Network.dyn_peer[110]  lookupTimeSig:vector  ETV
vector 60223  Network.dyn_peer[111]  lookupHopsSig:vector  ETV
vector 60222  Network.dyn_peer[111]  lookupTimeSig:vector  ETV
vector 60225  Network.dyn_peer[112]  lookupHopsSig:vector  ETV
vector 60224  Network.dyn_peer[112]  lookupTimeSig:vector  ETV
vector 60227  Network.dyn_peer[113]  lookupHopsSig:vector  ETV
vector 60226  Network.dyn_peer[113]  lookupTimeSig:vector  ETV
vector 60229  Network.dyn_peer[114]  lookupHopsSig:vector  ETV
vector 60228  Network.dyn_peer[114]  lookupTimeSig:vector  ETV
vector 60231  Network.dyn_peer[115]  lookupHopsSig:vector  ETV
vector 60230  Network.dyn_peer[115]  lookupTimeSig:vector  ETV
vector 60233  Network.dyn_peer[116]  lookupHopsSig:vector  ETV
vector 60232  Network.dyn_peer[116]  lookupTimeSig:vector  ETV
vector 60235  Network.dyn_peer[117]  lookupHopsSig:vector  ETV
vector 60234  Network.dyn_peer[117]  lookupTimeSig:vector  ETV
vector 60237  Network.dyn_peer[118]  lookupHopsSig:vector  ETV
vector 60236  Network.dyn_peer[118]  lookupTimeSig:vector  ETV
vector 60239  Network.dyn_peer[119]  lookupHopsSig:vector  ETV
vector 60238  Network.dyn_peer[119]  lookupTimeSig:vector  ETV
vector 60241  Network.dyn_peer[120]  lookupHopsSig:vector  ETV
vector 60240  Network.dyn_peer[120]  lookupTimeSig:vector  ETV
vector 60243  Network.dyn_peer[121]  lookupHopsSig:vector  ETV
vector 60242  Network.dyn_peer[121]  lookupTimeSig:vector  ETV
vector 60245  Network.dyn_peer[122]  lookupHopsSig:vector  ETV
vector 60244  Network.dyn_peer[122]  lookupTimeSig:vector  ETV
vector 60247  Network.dyn_peer[123]  lookupHopsSig:vector  ETV
vector 60246  Network.dyn_peer[123]  lookupTimeSig:vector  ETV
vector 60249  Network.dyn_peer[124]  lookupHopsSig:vector  ETV
vector 60248  Network.dyn_peer[124]  lookupTimeSig:vector  ETV
vector 60251  Network.dyn_peer[125]  lookupHopsSig:vector  ETV
vector 60250  Network.dyn_peer[125]  lookupTimeSig:vector  ETV
vector 60253  Network.dyn_peer[126]  lookupHopsSig:vector  ETV
vector 60252  Network.dyn_peer[126]  lookupTimeSig:vector  ETV
vector 60255  Network.dyn_peer[127]  lookupHopsSig:vector  ETV
vector 60254  Network.dyn_peer[127]  lookupTimeSig:vector  ETV
vector 60257  Network.dyn_peer[128]  lookupHopsSig:vector  ETV
vector 60256  Network.dyn_peer[128]  lookupTimeSig:vector  ETV
vector 60259  Network.dyn_peer[129]  lookupHopsSig:vector  ETV
vector 60258  Network.dyn_peer[129]  lookupTimeSig:vector  ETV
vector 60261  Network.dyn_peer[130]  lookupHopsSig:vector  ETV
vector 60260  Network.dyn_peer[130]  lookupTimeSig:vector  ETV
vector 60263  Network.dyn_peer[131]  lookupHopsSig:vector  ETV
vector 60262  Network.dyn_peer[131]  lookupTimeSig:vector  ETV
vector 60265  Network.dyn_peer[132]  lookupHopsSig:vector  ETV
vector 60264  Network.dyn_peer[132]  lookupTimeSig:vector  ETV
vector 60267  Network.dyn_peer[133]  lookupHopsSig:vector  ETV
vector 60266  Network.dyn_peer[133]  lookupTimeSig:vector  ETV
vector 60269  Network.dyn_peer[134]  lookupHopsSig:vector  ETV
vector 60268  Network.dyn_peer[134]  lookupTimeSig:vector  ETV
vector 60271  Network.dyn_peer[135]  lookupHopsSig:vector  ETV
vector 60270  Network.dyn_peer[135]  lookupTimeSig:vector  ETV
vector 60273  Network.dyn_peer[136]  lookupHopsSig:vector  ETV
vector 60272  Network.dyn_peer[136]  lookupTimeSig:vector  ETV
vector 60275  Network.dyn_peer[137]  lookupHopsSig:vector  ETV
vector 60274  Network.dyn_peer[137]  lookupTimeSig:vector  ETV
vector 60277  Network.dyn_peer[138]  lookupHopsSig:vector  ETV
vector 60276  Network.dyn_peer[138]  lookupTimeSig:vector  ETV
vector 60279  Network.dyn_peer[139]  lookupHopsSig:vector  ETV
vector 60278  Network.dyn_peer[139]  lookupTimeSig:vector  ETV
vector 60281  Network.dyn_peer[140]  lookupHopsSig:vector  ETV
vector 60280  Network.dyn_peer[140]  lookupTimeSig:vector  ETV
vector 60283  Network.dyn_peer[141]  lookupHopsSig:vector  ETV
vector 60282  Network.dyn_peer[141]  lookupTimeSig:vector  ETV
vector 60285  Network.dyn_peer[142]  lookupHopsSig:vector  ETV
vector 60284  Network.dyn_peer[142]  lookupTimeSig:vector  ETV
vector 60287  Network.dyn_peer[143]  lookupHopsSig:vector  ETV
vector 60286  Network.dyn_peer[143]  lookupTimeSig:vector  ETV
vector 60289  Network.dyn_peer[144]  lookupHopsSig:vector  ETV
vector 60288  Network.dyn_peer[144]  lookupTimeSig:vector  ETV
vector 60291  Network.dyn_peer[145]  lookupHopsSig:vector  ETV
vector 60290  Network.dyn_peer[145]  lookupTimeSig:vector  ETV
vector 60293  Network.dyn_peer[146]  lookupHopsSig:vector  ETV
vector 60292  Network.dyn_peer[146]  lookupTimeSig:vector  ETV
vector 60295  Network.dyn_peer[147]  lookupHopsSig:vector  ETV
vector 60294  Network.dyn_peer[147]  lookupTimeSig:vector  ETV
vector 60297  Network.dyn_peer[148]  lookupHopsSig:vector  ETV
vector 60296  Network.dyn_peer[148]  lookupTimeSig:vector  ETV
vector 60299  Network.dyn_peer[149]  lookupHopsSig:vector  ETV
vector 60298  Network.dyn_peer[149]  lookupTimeSig:vector  ETV
vector 60301  Network.dyn_peer[150]  lookupHopsSig:vector  ETV
vector 60300  Network.dyn_peer[150]  lookupTimeSig:vector  ETV
vector 60303  Network.dyn_peer[151]  lookupHopsSig:vector  ETV
vector 60302  Network.dyn_peer[151]  lookupTimeSig:vector  ETV
vector 60305  Network.dyn_peer[152]  lookupHopsSig:vector  ETV
vector 60304  Network.dyn_peer[152]  lookupTimeSig:vector  ETV
vector 60307  Network.dyn_peer[153]  lookupHopsSig:vector  ETV
vector 60306  Network.dyn_peer[153]  lookupTimeSig:vector  ETV
vector 60309  Network.dyn_peer[154]  lookupHopsSig:vector  ETV
vector 60308  Network.dyn_peer[154]  lookupTimeSig:vector  ETV
vector 60311  Network.dyn_peer[155]  lookupHopsSig:vector  ETV
vector 60310  Network.dyn_peer[155]  lookupTimeSig:vector  ETV
vector 60313  Network.dyn_peer[156]  lookupHopsSig:vector  ETV
vector 60312  Network.dyn_peer[156]  lookupTimeSig:vector  ETV
vector 60315  Network.dyn_peer[157]  lookupHopsSig:vector  ETV
vector 60314  Network.dyn_peer[157]  lookupTimeSig:vector  ETV
vector 60317  Network.dyn_peer[158]  lookupHopsSig:vector  ETV
vector 60316  Network.dyn_peer[158]  lookupTimeSig:vector  ETV
vector 60319  Network.dyn_peer[159]  lookupHopsSig:vector  ETV
vector 60318  Network.dyn_peer[159]  lookupTimeSig:vector  ETV
vector 60321  Network.dyn_peer[160]  lookupHopsSig:vector  ETV
vector 60320  Network.dyn_peer[160]  lookupTimeSig:vector  ETV
vector 60323  Network.dyn_peer[161]  lookupHopsSig:vector  ETV
vector 60322  Network.dyn_peer[161]  lookupTimeSig:vector  ETV
vector 60325  Network.dyn_peer[162]  lookupHopsSig:vector  ETV
vector 60324  Network.dyn_peer[162]  lookupTimeSig:vector  ETV
vector 60327  Network.dyn_peer[163]  lookupHopsSig:vector  ETV
vector 60326  Network.dyn_peer[163]  lookupTimeSig:vector  ETV
vector 60329  Network.dyn_peer[164]  lookupHopsSig:vector  ETV
vector 60328  Network.dyn_peer[164]  lookupTimeSig:vector  ETV
vector 60331  Network.dyn_peer[165]  lookupHopsSig:vector  ETV
vector 60330  Network.dyn_peer[165]  lookupTimeSig:vector  ETV
vector 60333  Network.dyn_peer[166]  lookupHopsSig:vector  ETV
vector 60332  Network.dyn_peer[166]  lookupTimeSig:vector  ETV
vector 60335  Network.dyn_peer[167]  lookupHopsSig:vector  ETV
vector 60334  Network.dyn_peer[167]  lookupTimeSig:vector  ETV
vector 60337  Network.dyn_peer[168]  lookupHopsSig:vector  ETV
vector 60336  Network.dyn_peer[168]  lookupTimeSig:vector  ETV
vector 60339  Network.dyn_peer[169]  lookupHopsSig:vector  ETV
vector 60338  Network.dyn_peer[169]  lookupTimeSig:vector  ETV
vector 60341  Network.dyn_peer[170]  lookupHopsSig:vector  ETV
vector 60340  Network.dyn_peer[170]  lookupTimeSig:vector  ETV
vector 60343  Network.dyn_peer[171]  lookupHopsSig:vector  ETV
vector 60342  Network.dyn_peer[171]  lookupTimeSig:vector  ETV
vector 60345  Network.dyn_peer[172]  lookupHopsSig:vector  ETV
vector 60344  Network.dyn_peer[172]  lookupTimeSig:vector  ETV
vector 60347  Network.dyn_peer[173]  lookupHopsSig:vector  ETV
vector 60346  Network.dyn_peer[173]  lookupTimeSig:vector  ETV
vector 60349  Network.dyn_peer[174]  lookupHopsSig:vector  ETV
vector 60348  Network.dyn_peer[174]  lookupTimeSig:vector  ETV
vector 60351  Network.dyn_peer[175]  lookupHopsSig:vector  ETV
vector 60350  Network.dyn_peer[175]  lookupTimeSig:vector  ETV
vector 60353  Network.dyn_peer[176]  lookupHopsSig:vector  ETV
vector 60352  Network.dyn_peer[176]  lookupTimeSig:vector  ETV
vector 60355  Network.dyn_peer[177]  lookupHopsSig:vector  ETV
vector 60354  Network.dyn_peer[177]  lookupTimeSig:vector  ETV
vector 60357  Network.dyn_peer[178]  lookupHopsSig:vector  ETV
vector 60356  Network.dyn_peer[178]  lookupTimeSig:vector  ETV
vector 60359  Network.dyn_peer[179]  lookupHopsSig:vector  ETV
vector 60358  Network.dyn_peer[179]  lookupTimeSig:vector  ETV
vector 60361  Network.dyn_peer[180]  lookupHopsSig:vector  ETV
vector 60360  Network.dyn_peer[180]  lookupTimeSig:vector  ETV
vector 60363  Network.dyn_peer[181]  lookupHopsSig:vector  ETV
vector 60362  Network.dyn_peer[181]  lookupTimeSig:vector  ETV
vector 60365  Network.dyn_peer[182]  lookupHopsSig:vector  ETV
vector 60364  Network.dyn_peer[182]  lookupTimeSig:vector  ETV
vector 60367  Network.dyn_peer[183]  lookupHopsSig:vector  ETV
vector 60366  Network.dyn_peer[183]  lookupTimeSig:vector  ETV
vector 60369  Network.dyn_peer[184]  lookupHopsSig:vector  ETV
vector 60368  Network.dyn_peer[184]  lookupTimeSig:vector  ETV
vector 60371  Network.dyn_peer[185]  lookupHopsSig:vector  ETV
vector 60370  Network.dyn_peer[185]  lookupTimeSig:vector  ETV
vector 60373  Network.dyn_peer[186]  lookupHopsSig:vector  ETV
vector 60372  Network.dyn_peer[186]  lookupTimeSig:vector  ETV
vector 60375  Network.dyn_peer[187]  lookupHopsSig:vector  ETV
vector 60374  Network.dyn_peer[187]  lookupTimeSig:vector  ETV
vector 60377  Network.dyn_peer[188]  lookupHopsSig:vector  ETV
vector 60376  Network.dyn_peer[188]  lookupTimeSig:vector  ETV
vector 60379  Network.dyn_peer[189]  lookupHopsSig:vector  ETV
vector 60378  Network.dyn_peer[189]  lookupTimeSig:vector  ETV
vector 60381  Network.dyn_peer[190]  lookupHopsSig:vector  ETV
vector 60380  Network.dyn_peer[190]  lookupTimeSig:vector  ETV
vector 60383  Network.dyn_peer[191]  lookupHopsSig:vector  ETV
vector 60382  Network.dyn_peer[191]  lookupTimeSig:vector  ETV
vector 60385  Network.dyn_peer[192]  lookupHopsSig:vector  ETV
vector 60384  Network.dyn_peer[192]  lookupTimeSig:vector  ETV
vector 60387  Network.dyn_peer[193]  lookupHopsSig:vector  ETV
vector 60386  Network.dyn_peer[193]  lookupTimeSig:vector  ETV
vector 60389  Network.dyn_peer[194]  lookupHopsSig:vector  ETV
vector 60388  Network.dyn_peer[194]  lookupTimeSig:vector  ETV
vector 60391  Network.dyn_peer[195]  lookupHopsSig:vector  ETV
vector 60390  Network.dyn_peer[195]  lookupTimeSig:vector  ETV
vector 60393  Network.dyn_peer[196]  lookupHopsSig:vector  ETV
vector 60392  Network.dyn_peer[196]  lookupTimeSig:vector  ETV
vector 60395  Network.dyn_peer[197]  lookupHopsSig:vector  ETV
vector 60394  Network.dyn_peer[197]  lookupTimeSig:vector  ETV
vector 60397  Network.dyn_peer[198]  lookupHopsSig:vector  ETV
vector 60396  Network.dyn_peer[198]  lookupTimeSig:vector  ETV
vector 60399  Network.dyn_peer[199]  lookupHopsSig:vector  ETV
vector 60398  Network.dyn_peer[199]  lookupTimeSig:vector  ETV
vector 60401  Network.dyn_peer[200]  lookupHopsSig:vector  ETV
vector 60400  Network.dyn_peer[200]  lookupTimeSig:vector  ETV
vector 60403  Network.dyn_peer[201]  lookupHopsSig:vector  ETV
vector 60402  Network.dyn_peer[201]  lookupTimeSig:vector  ETV
vector 60405  Network.dyn_peer[202]  lookupHopsSig:vector  ETV
vector 60404  Network.dyn_peer[202]  lookupTimeSig:vector  ETV
vector 60407  Network.dyn_peer[203]  lookupHopsSig:vector  ETV
vector 60406  Network.dyn_peer[203]  lookupTimeSig:vector  ETV
vector 60409  Network.dyn_peer[204]  lookupHopsSig:vector  ETV
vector 60408  Network.dyn_peer[204]  lookupTimeSig:vector  ETV
vector 60411  Network.dyn_peer[205]  lookupHopsSig:vector  ETV
vector 60410  Network.dyn_peer[205]  lookupTimeSig:vector  ETV
vector 60413  Network.dyn_peer[206]  lookupHopsSig:vector  ETV
vector 60412  Network.dyn_peer[206]  lookupTimeSig:vector  ETV
vector 60415  Network.dyn_peer[207]  lookupHopsSig:vector  ETV
vector 60414  Network.dyn_peer[207]  lookupTimeSig:vector  ETV
vector 60417  Network.dyn_peer[208]  lookupHopsSig:vector  ETV
vector 60416  Network.dyn_peer[208]  lookupTimeSig:vector  ETV
vector 60419  Network.dyn_peer[209]  lookupHopsSig:vector  ETV
vector 60418  Network.dyn_peer[209]  lookupTimeSig:vector  ETV
vector 60421  Network.dyn_peer[210]  lookupHopsSig:vector  ETV
vector 60420  Network.dyn_peer[210]  lookupTimeSig:vector  ETV
vector 60423  Network.dyn_peer[211]  lookupHopsSig:vector  ETV
vector 60422  Network.dyn_peer[211]  lookupTimeSig:vector  ETV
vector 60425  Network.dyn_peer[212]  lookupHopsSig:vector  ETV
vector 60424  Network.dyn_peer[212]  lookupTimeSig:vector  ETV
vector 60427  Network.dyn_peer[213]  lookupHopsSig:vector  ETV
vector 60426  Network.dyn_peer[213]  lookupTimeSig:vector  ETV
vector 60429  Network.dyn_peer[214]  lookupHopsSig:vector  ETV
vector 60428  Network.dyn_peer[214]  lookupTimeSig:vector  ETV
vector 60431  Network.dyn_peer[215]  lookupHopsSig:vector  ETV
vector 60430  Network.dyn_peer[215]  lookupTimeSig:vector  ETV
vector 60433  Network.dyn_peer[216]  lookupHopsSig:vector  ETV
vector 60432  Network.dyn_peer[216]  lookupTimeSig:vector  ETV
vector 60435  Network.dyn_peer[217]  lookupHopsSig:vector  ETV
vector 60434  Network.dyn_peer[217]  lookupTimeSig:vector  ETV
vector 60437  Network.dyn_peer[218]  lookupHopsSig:vector  ETV
vector 60436  Network.dyn_peer[218]  lookupTimeSig:vector  ETV
vector 60439  Network.dyn_peer[219]  lookupHopsSig:vector  ETV
vector 60438  Network.dyn_peer[219]  lookupTimeSig:vector  ETV
vector 60441  Network.dyn_peer[220]  lookupHopsSig:vector  ETV
vector 60440  Network.dyn_peer[220]  lookupTimeSig:vector  ETV
vector 60443  Network.dyn_peer[221]  lookupHopsSig:vector  ETV
vector 60442  Network.dyn_peer[221]  lookupTimeSig:vector  ETV
vector 60445  Network.dyn_peer[222]  lookupHopsSig:vector  ETV
vector 60444  Network.dyn_peer[222]  lookupTimeSig:vector  ETV
vector 60447  Network.dyn_peer[223]  lookupHopsSig:vector  ETV
vector 60446  Network.dyn_peer[223]  lookupTimeSig:vector  ETV
vector 60449  Network.dyn_peer[224]  lookupHopsSig:vector  ETV
vector 60448  Network.dyn_peer[224]  lookupTimeSig:vector  ETV
vector 60451  Network.dyn_peer[225]  lookupHopsSig:vector  ETV
vector 60450  Network.dyn_peer[225]  lookupTimeSig:vector  ETV
vector 60453  Network.dyn_peer[226]  lookupHopsSig:vector  ETV
vector 60452  Network.dyn_peer[226]  lookupTimeSig:vector  ETV
vector 60455  Network.dyn_peer[227]  lookupHopsSig:vector  ETV
vector 60454  Network.dyn_peer[227]  lookupTimeSig:vector  ETV
vector 60457  Network.dyn_peer[228]  lookupHopsSig:vector  ETV
vector 60456  Network.dyn_peer[228]  lookupTimeSig:vector  ETV
vector 60459  Network.dyn_peer[229]  lookupHopsSig:vector  ETV
vector 60458  Network.dyn_peer[229]  lookupTimeSig:vector  ETV
vector 60461  Network.dyn_peer[230]  lookupHopsSig:vector  ETV
vector 60460  Network.dyn_peer[230]  lookupTimeSig:vector  ETV
vector 60463  Network.dyn_peer[231]  lookupHopsSig:vector  ETV
vector 60462  Network.dyn_peer[231]  lookupTimeSig:vector  ETV
vector 60465  Network.dyn_peer[232]  lookupHopsSig:vector  ETV
vector 60464  Network.dyn_peer[232]  lookupTimeSig:vector  ETV
vector 60467  Network.dyn_peer[233]  lookupHopsSig:vector  ETV
vector 60466  Network.dyn_peer[233]  lookupTimeSig:vector  ETV
vector 60469  Network.dyn_peer[234]  lookupHopsSig:vector  ETV
vector 60468  Network.dyn_peer[234]  lookupTimeSig:vector  ETV
vector 60471  Network.dyn_peer[235]  lookupHopsSig:vector  ETV
vector 60470  Network.dyn_peer[235]  lookupTimeSig:vector  ETV
vector 60473  Network.dyn_peer[236]  lookupHopsSig:vector  ETV