file 1059478 1369674143                                         
version 2
run Stability-26-20130521-22:23:49-23591
attr configname Stability
attr datetime 20130521-22:23:49
attr experiment Stability
attr inifile omnetpp.ini
attr iterationvars $0=8
attr iterationvars2 "$0=8, $repetition=26"
attr measurement $0=8
attr network Network
attr processid 23591
attr repetition 26
attr replication #26
attr resultdir results
attr runnumber 26
attr seedset 26
vector 52001  Network.dyn_peer[0]  lookupHopsSig:vector  ETV
52001	127546 1312 105 167754 28.2 6710.824906892353 42 1 31 401 6049
vector 52000  Network.dyn_peer[0]  lookupTimeSig:vector  ETV
52000	126169 1377 105 167754 28.2 6710.824906892353 42 0.2 3.2 44.2 68.88
vector 52003  Network.dyn_peer[1]  lookupHopsSig:vector  ETV
52003	130309 1374 139 64553 36.4 3409.827551846129 45 1 15 292 2332
vector 52002  Network.dyn_peer[1]  lookupTimeSig:vector  ETV
52002	128858 1451 139 64553 36.4 3409.827551846129 45 0.2 1.6 33.6 29.52
vector 52005  Network.dyn_peer[2]  lookupHopsSig:vector  ETV
52005	133399 1641 174 177510 44.3 6995.425144846346 52 1 38 493 7357
vector 52004  Network.dyn_peer[2]  lookupTimeSig:vector  ETV
52004	131683 1716 174 177510 44.3 6995.425144846346 52 0.2 3.9 54.4 83.88
vector 52007  Network.dyn_peer[3]  lookupHopsSig:vector  ETV
52007	136329 1235 203 206244 52.4 7804.137753341023 40 1 37 376 5790
vector 52006  Network.dyn_peer[3]  lookupTimeSig:vector  ETV
52006	135040 1289 203 206244 52.4 7804.137753341023 40 0.2 3.8 41.5 65.73
vector 52009  Network.dyn_peer[4]  lookupHopsSig:vector  ETV
52009	138866 1241 273 190958 60.3 7374.53540837765 40 1 44 357 5917
vector 52008  Network.dyn_peer[4]  lookupTimeSig:vector  ETV
52008	137564 1302 273 190958 60.3 7374.53540837765 40 0.2 4.5 39.6 66.64
vector 52011  Network.dyn_peer[5]  lookupHopsSig:vector  ETV
52011	141027 883 328 187664 68.3 7289.719299241338 28 1 16 222 2328
vector 52010  Network.dyn_peer[5]  lookupTimeSig:vector  ETV
52010	140107 920 328 187664 68.3 7289.719299241338 28 0.2 1.7 24.9 27.93
vector 52013  Network.dyn_peer[6]  lookupHopsSig:vector  ETV
52013	143832 1812 352 184440 76.1 7205.939807270372 60 1 24 357 3139
vector 52012  Network.dyn_peer[6]  lookupTimeSig:vector  ETV
52012	141910 1922 352 184440 76.1 7205.939807270372 60 0.1 2.5 41.6 39.1
vector 52015  Network.dyn_peer[7]  lookupHopsSig:vector  ETV
52015	147122 1407 398 90511 84.4 4329.929165303059 46 1 18 341 3379
vector 52014  Network.dyn_peer[7]  lookupTimeSig:vector  ETV
52014	145644 1478 398 90511 84.4 4329.929165303059 46 0.2 1.9 38.6 40.98
vector 52017  Network.dyn_peer[8]  lookupHopsSig:vector  ETV
52017	150362 1739 456 181935 92.2 7133.029437393538 56 1 32 411 5313
vector 52016  Network.dyn_peer[8]  lookupTimeSig:vector  ETV
52016	148529 1833 456 181935 92.2 7133.029437393538 56 0.2 3.3 46.6 61.86
vector 52019  Network.dyn_peer[9]  lookupHopsSig:vector  ETV
52019	153216 1066 536 92789 100.1 4412.342441748372 34 1 20 274 2928
vector 52018  Network.dyn_peer[9]  lookupTimeSig:vector  ETV
52018	152101 1115 536 92789 100.1 4412.342441748372 34 0.1 2.1 30.7 35.07
vector 52021  Network.dyn_peer[10]  lookupHopsSig:vector  ETV
52021	156315 1934 561 173998 108.2 6901.016079734581 62 1 26 448 4890
vector 52020  Network.dyn_peer[10]  lookupTimeSig:vector  ETV
52020	154282 2033 561 173998 108.2 6901.016079734581 62 0.2 2.7 50.9 58.43
vector 52023  Network.dyn_peer[11]  lookupHopsSig:vector  ETV
52023	159508 1197 602 102322 116.3 4758.332518652456 38 1 30 292 3690
vector 52022  Network.dyn_peer[11]  lookupTimeSig:vector  ETV
52022	158249 1259 602 102322 116.3 4758.332518652456 38 0.2 3.1 32.9 43.05
vector 52025  Network.dyn_peer[12]  lookupHopsSig:vector  ETV
52025	162426 1634 641 122185 124 5403.834195688096 54 0 27 384 4218
vector 52024  Network.dyn_peer[12]  lookupTimeSig:vector  ETV
52024	160705 1721 641 122185 124 5403.834195688096 54 0 2.8 43.7 50.39
vector 52027  Network.dyn_peer[13]  lookupHopsSig:vector  ETV
52027	166364 2205 726 144888 132.3 6018.714711168274 69 1 25 598 7224
vector 52026  Network.dyn_peer[13]  lookupTimeSig:vector  ETV
52026	164060 2304 726 144888 132.3 6018.714711168274 69 0.2 2.6 66.6 84.82
vector 52029  Network.dyn_peer[14]  lookupHopsSig:vector  ETV
52029	170075 1437 762 193128 140 7451.122811125976 46 0 31 376 5238
vector 52028  Network.dyn_peer[14]  lookupTimeSig:vector  ETV
52028	168569 1506 762 193128 140 7451.122811125976 46 0 3.2 42.1 60.35
vector 52031  Network.dyn_peer[15]  lookupHopsSig:vector  ETV
52031	173227 1646 816 197250 148.3 7571.215049044609 52 1 22 502 6500
vector 52030  Network.dyn_peer[15]  lookupTimeSig:vector  ETV
52030	171512 1715 816 197250 148.3 7571.215049044609 52 0.2 2.3 55.3 75.49
vector 52033  Network.dyn_peer[16]  lookupHopsSig:vector  ETV
52033	176991 2023 866 153551 156.5 6285.022839424766 65 1 25 494 5532
vector 52032  Network.dyn_peer[16]  lookupTimeSig:vector  ETV
52032	174873 2118 866 153551 156.5 6285.022839424766 65 0.2 2.6 55.8 65.74
vector 52035  Network.dyn_peer[17]  lookupHopsSig:vector  ETV
52035	180185 1111 928 133099 164.5 5697.728455241242 36 1 20 225 2291
vector 52034  Network.dyn_peer[17]  lookupTimeSig:vector  ETV
52034	179014 1171 928 133099 164.5 5697.728455241242 36 0.2 2.1 26 27.66
vector 52037  Network.dyn_peer[18]  lookupHopsSig:vector  ETV
52037	182926 1555 986 208278 172.4 7853.937577294673 49 1 24 427 5255
vector 52036  Network.dyn_peer[18]  lookupTimeSig:vector  ETV
52036	181296 1630 986 208278 172.4 7853.937577294673 49 0.2 2.5 47.5 61.49
vector 52039  Network.dyn_peer[19]  lookupHopsSig:vector  ETV
52039	186049 1503 1054 195017 180.6 7512.832624449545 47 2 28 475 6289
vector 52038  Network.dyn_peer[19]  lookupTimeSig:vector  ETV
52038	184481 1568 1054 195017 180.6 7512.832624449545 47 0.3 2.9 52.1 72.73
vector 52041  Network.dyn_peer[20]  lookupHopsSig:vector  ETV
52041	188788 1175 1091 104351 188.1 4818.314399538667 38 1 25 274 3114
vector 52040  Network.dyn_peer[20]  lookupTimeSig:vector  ETV
52040	187552 1236 1091 104351 188.1 4818.314399538667 38 0.1 2.6 31.1 36.97
vector 52043  Network.dyn_peer[21]  lookupHopsSig:vector  ETV
52043	190305 323 1151 105225 196.1 4850.322826449406 11 1 16 74 776
vector 52042  Network.dyn_peer[21]  lookupTimeSig:vector  ETV
52042	189963 342 1151 105225 196.1 4850.322826449406 11 0.1 1.7 8.4 9.32
vector 52045  Network.dyn_peer[22]  lookupHopsSig:vector  ETV
52045	191979 1295 1204 145622 204.4 6043.231431768558 41 1 24 400 5276
vector 52044  Network.dyn_peer[22]  lookupTimeSig:vector  ETV
52044	190628 1351 1204 145622 204.4 6043.231431768558 41 0.2 2.5 44 61.08
vector 52047  Network.dyn_peer[23]  lookupHopsSig:vector  ETV
52047	194778 1432 1259 208863 212.5 7864.92241521539 45 1 35 420 6154
vector 52046  Network.dyn_peer[23]  lookupTimeSig:vector  ETV
52046	193274 1504 1259 208863 212.5 7864.92241521539 45 0.2 3.6 46.4 70.28
vector 52049  Network.dyn_peer[24]  lookupHopsSig:vector  ETV
52049	198647 2332 1320 143914 220.5 5987.92061712548 74 1 24 583 6273
vector 52048  Network.dyn_peer[24]  lookupTimeSig:vector  ETV
52048	196210 2437 1320 143914 220.5 5987.92061712548 74 0.2 2.5 65.6 75.02
vector 52051  Network.dyn_peer[25]  lookupHopsSig:vector  ETV
52051	202339 1297 1360 190133 228.3 7356.733726441935 41 1 22 327 3599
vector 52050  Network.dyn_peer[25]  lookupTimeSig:vector  ETV
52050	200979 1360 1360 190133 228.3 7356.733726441935 41 0.2 2.3 36.7 42.87
vector 52053  Network.dyn_peer[26]  lookupHopsSig:vector  ETV
52053	204051 391 1409 12608 236.8 1105.22725292363 13 3 14 70 526
vector 52052  Network.dyn_peer[26]  lookupTimeSig:vector  ETV
52052	203636 415 1409 12608 236.8 1105.22725292363 13 0.4 1.5 8.2 6.62
vector 52055  Network.dyn_peer[27]  lookupHopsSig:vector  ETV
52055	205765 1265 1457 155741 244.2 6351.840789523623 40 1 20 332 3924
vector 52054  Network.dyn_peer[27]  lookupTimeSig:vector  ETV
52054	204442 1323 1457 155741 244.2 6351.840789523623 40 0.2 2.1 37.1 46.23
vector 52057  Network.dyn_peer[28]  lookupHopsSig:vector  ETV
52057	207869 796 1532 159227 252.5 6458.422194754275 26 2 16 166 1568
vector 52056  Network.dyn_peer[28]  lookupTimeSig:vector  ETV
52056	207030 839 1532 159227 252.5 6458.422194754275 26 0.3 1.7 19.1 19.15
vector 52059  Network.dyn_peer[29]  lookupHopsSig:vector  ETV
52059	209474 765 1596 150808 260.3 6195.111383040185 25 1 27 148 1920
vector 52058  Network.dyn_peer[29]  lookupTimeSig:vector  ETV
52058	208665 809 1596 150808 260.3 6195.111383040185 25 0.2 2.8 17.2 22.34
vector 52061  Network.dyn_peer[30]  lookupHopsSig:vector  ETV
52061	211398 1099 1650 116098 268.2 5213.835473901887 36 1 29 230 2696
vector 52060  Network.dyn_peer[30]  lookupTimeSig:vector  ETV
52060	210239 1159 1650 116098 268.2 5213.835473901887 36 0.2 3 26.5 31.87
vector 52063  Network.dyn_peer[31]  lookupHopsSig:vector  ETV
52063	214009 1438 1743 169467 276.4 6772.324621711752 46 1 28 366 4306
vector 52062  Network.dyn_peer[31]  lookupTimeSig:vector  ETV
52062	212497 1512 1743 169467 276.4 6772.324621711752 46 0.2 2.9 41.1 50.75
vector 52065  Network.dyn_peer[32]  lookupHopsSig:vector  ETV
52065	216730 1211 1836 184676 284.2 7211.024729923239 39 1 21 220 2110
vector 52064  Network.dyn_peer[32]  lookupTimeSig:vector  ETV
52064	215447 1283 1836 184676 284.2 7211.024729923239 39 0.2 2.2 25.8 25.84
vector 52067  Network.dyn_peer[33]  lookupHopsSig:vector  ETV
52067	219141 1139 1930 124439 292.4 5459.833111395074 37 1 25 290 3548
vector 52066  Network.dyn_peer[33]  lookupTimeSig:vector  ETV
52066	217941 1200 1930 124439 292.4 5459.833111395074 37 0.2 2.6 32.6 41.56
vector 52069  Network.dyn_peer[34]  lookupHopsSig:vector  ETV
52069	221160 836 1974 107829 300.7 4946.012268853574 27 1 22 201 2337
vector 52068  Network.dyn_peer[34]  lookupTimeSig:vector  ETV
52068	220280 880 1974 107829 300.7 4946.012268853574 27 0.2 2.3 22.7 27.51
vector 52071  Network.dyn_peer[35]  lookupHopsSig:vector  ETV
52071	222945 913 2030 200268 308.3 7645.325288490976 29 1 42 339 6369
vector 52070  Network.dyn_peer[35]  lookupTimeSig:vector  ETV
52070	221996 949 2030 200268 308.3 7645.325288490976 29 0.2 4.3 36.7 70.69
vector 52073  Network.dyn_peer[36]  lookupHopsSig:vector  ETV
52073	224951 1036 2083 186211 316.3 7254.920160013598 33 1 33 256 3914
vector 52072  Network.dyn_peer[36]  lookupTimeSig:vector  ETV
52072	223858 1093 2083 186211 316.3 7254.920160013598 33 0.2 3.4 28.8 44.52
vector 52075  Network.dyn_peer[37]  lookupHopsSig:vector  ETV
52075	227146 1108 2133 194385 324.4 7494.53416401635 35 1 21 317 3891
vector 52074  Network.dyn_peer[37]  lookupTimeSig:vector  ETV
52074	225987 1159 2133 194385 324.4 7494.53416401635 35 0.2 2.2 35.1 45.51
vector 52077  Network.dyn_peer[38]  lookupHopsSig:vector  ETV
52077	230188 1849 2263 149903 332.4 6152.022489992036 58 1 17 533 6209
vector 52076  Network.dyn_peer[38]  lookupTimeSig:vector  ETV
52076	228254 1934 2263 149903 332.4 6152.022489992036 58 0.2 1.8 59 73.24
vector 52079  Network.dyn_peer[39]  lookupHopsSig:vector  ETV
52079	233642 1542 2316 149731 340.2 6148.638158890736 48 1 25 498 6754
vector 52078  Network.dyn_peer[39]  lookupTimeSig:vector  ETV
52078	232037 1605 2316 149731 340.2 6148.638158890736 48 0.2 2.6 54.5 77.93
vector 52081  Network.dyn_peer[40]  lookupHopsSig:vector  ETV
52081	236731 1481 2345 182469 348.1 7144.243958296323 47 1 21 388 4836
vector 52080  Network.dyn_peer[40]  lookupTimeSig:vector  ETV
52080	235184 1547 2345 182469 348.1 7144.243958296323 47 0.1 2.2 43.4 56.56
vector 52083  Network.dyn_peer[41]  lookupHopsSig:vector  ETV
52083	240409 2102 2409 211755 356.4 7951.529413046794 66 1 31 637 9131
vector 52082  Network.dyn_peer[41]  lookupTimeSig:vector  ETV
52082	238212 2197 2409 211755 356.4 7951.529413046794 66 0.2 3.2 70.2 104.62
vector 52085  Network.dyn_peer[42]  lookupHopsSig:vector  ETV
52085	243770 1203 2489 161713 364.3 6545.447684452451 38 1 40 384 6710
vector 52084  Network.dyn_peer[42]  lookupTimeSig:vector  ETV
52084	242511 1259 2489 161713 364.3 6545.447684452451 38 0.2 4.1 42.1 75.09
vector 52087  Network.dyn_peer[43]  lookupHopsSig:vector  ETV
52087	246114 1088 2602 150222 372.6 6170.517452754792 34 1 25 343 4807
vector 52086  Network.dyn_peer[43]  lookupTimeSig:vector  ETV
52086	244973 1141 2602 150222 372.6 6170.517452754792 34 0.2 2.6 37.6 55.14
vector 52089  Network.dyn_peer[44]  lookupHopsSig:vector  ETV
52089	247994 750 2731 109981 380.5 5025.522443615762 25 1 15 159 1333
vector 52088  Network.dyn_peer[44]  lookupTimeSig:vector  ETV
52088	247202 792 2731 109981 380.5 5025.522443615762 25 0.2 1.6 18.3 16.65
vector 52091  Network.dyn_peer[45]  lookupHopsSig:vector  ETV
52091	249703 915 2888 128056 388.3 5552.839053092168 29 2 30 286 4776
vector 52090  Network.dyn_peer[45]  lookupTimeSig:vector  ETV
52090	248744 959 2888 128056 388.3 5552.839053092168 29 0.3 3.1 31.4 53.7
vector 52093  Network.dyn_peer[46]  lookupHopsSig:vector  ETV
52093	251197 551 2946 115510 396.5 5195.52090315236 18 1 21 152 1898
vector 52092  Network.dyn_peer[46]  lookupTimeSig:vector  ETV
52092	250618 579 2946 115510 396.5 5195.52090315236 18 0.2 2.2 16.9 22.09
vector 52095  Network.dyn_peer[47]  lookupHopsSig:vector  ETV
52095	253091 1284 2987 149709 404 6148.227649448393 41 0 29 348 4920
vector 52094  Network.dyn_peer[47]  lookupTimeSig:vector  ETV
52094	251748 1343 2987 149709 404 6148.227649448393 41 0 3 38.8 56.56
vector 52097  Network.dyn_peer[48]  lookupHopsSig:vector  ETV
52097	255725 1295 3057 120934 412.2 5370.6315485701 41 1 26 400 5674
vector 52096  Network.dyn_peer[48]  lookupTimeSig:vector  ETV
52096	254375 1350 3057 120934 412.2 5370.6315485701 41 0.2 2.7 44 65.1
vector 52099  Network.dyn_peer[49]  lookupHopsSig:vector  ETV
52099	259248 2112 3113 137587 420.3 5808.442180882743 67 1 26 496 5730
vector 52098  Network.dyn_peer[49]  lookupTimeSig:vector  ETV
52098	257020 2228 3113 137587 420.3 5808.442180882743 67 0.2 2.7 56.2 67.82
vector 52101  Network.dyn_peer[50]  lookupHopsSig:vector  ETV
52101	262725 1306 3223 209612 428.7 7879.540443592237 41 1 33 339 4525
vector 52100  Network.dyn_peer[50]  lookupTimeSig:vector  ETV
52100	261360 1365 3223 209612 428.7 7879.540443592237 41 0.2 3.4 37.9 52.29
vector 52103  Network.dyn_peer[51]  lookupHopsSig:vector  ETV
52103	265306 1216 3324 214359 436.6 8018.533819222342 39 1 41 336 5024
vector 52102  Network.dyn_peer[51]  lookupTimeSig:vector  ETV
52102	264031 1275 3324 214359 436.6 8018.533819222342 39 0.2 4.2 37.4 57.22
vector 52105  Network.dyn_peer[52]  lookupHopsSig:vector  ETV
52105	267190 629 3395 58596 444.5 3184.614820295282 21 1 13 97 625
vector 52104  Network.dyn_peer[52]  lookupTimeSig:vector  ETV
52104	266522 668 3395 58596 444.5 3184.614820295282 21 0.2 1.4 11.7 8.29
vector 52107  Network.dyn_peer[53]  lookupHopsSig:vector  ETV
52107	268798 928 3529 209661 452.3 7880.443490180971 30 1 29 237 3185
vector 52106  Network.dyn_peer[53]  lookupTimeSig:vector  ETV
52106	267819 979 3529 209661 452.3 7880.443490180971 30 0.2 3 26.6 36.82
vector 52109  Network.dyn_peer[54]  lookupHopsSig:vector  ETV
52109	271279 1481 3576 210271 460.1 7901.032436765143 47 1 29 419 5987
vector 52108  Network.dyn_peer[54]  lookupTimeSig:vector  ETV
52108	269726 1553 3576 210271 460.1 7901.032436765143 47 0.1 3 46.5 68.69
vector 52111  Network.dyn_peer[55]  lookupHopsSig:vector  ETV
52111	274148 1327 3622 130274 468.5 5623.262563303018 42 1 25 362 4576
vector 52110  Network.dyn_peer[55]  lookupTimeSig:vector  ETV
52110	272760 1388 3622 130274 468.5 5623.262563303018 42 0.2 2.6 40.3 53.31
vector 52113  Network.dyn_peer[56]  lookupHopsSig:vector  ETV
52113	276315 793 3790 96806 476.5 4546.347204612669 26 1 17 134 1080
vector 52112  Network.dyn_peer[56]  lookupTimeSig:vector  ETV
52112	275475 840 3790 96806 476.5 4546.347204612669 26 0.2 1.8 15.9 13.63
vector 52115  Network.dyn_peer[57]  lookupHopsSig:vector  ETV
52115	278129 971 3848 199936 484.8 7639.936913982655 31 1 23 253 3177
vector 52114  Network.dyn_peer[57]  lookupTimeSig:vector  ETV
52114	277108 1021 3848 199936 484.8 7639.936913982655 31 0.2 2.4 28.3 36.97
vector 52117  Network.dyn_peer[58]  lookupHopsSig:vector  ETV
52117	280133 986 3908 66631 492.6 3470.645032049783 32 2 29 303 4005
vector 52116  Network.dyn_peer[58]  lookupTimeSig:vector  ETV
52116	279100 1033 3908 66631 492.6 3470.645032049783 32 0.3 3 33.4 46.3
vector 52119  Network.dyn_peer[59]  lookupHopsSig:vector  ETV
52119	282234 1066 4069 161199 500.6 6527.33125702387 34 1 22 288 3420
vector 52118  Network.dyn_peer[59]  lookupTimeSig:vector  ETV
52118	281119 1115 4069 161199 500.6 6527.33125702387 34 0.2 2.3 32.1 40.17
vector 52121  Network.dyn_peer[60]  lookupHopsSig:vector  ETV
52121	284194 854 4127 155263 508.2 6342.533570196331 27 2 24 286 4560
vector 52120  Network.dyn_peer[60]  lookupTimeSig:vector  ETV
52120	283300 894 4127 155263 508.2 6342.533570196331 27 0.2 2.5 31.2 51.54
vector 52123  Network.dyn_peer[61]  lookupHopsSig:vector  ETV
52123	286150 1053 4191 155753 516.7 6352.160913370611 33 2 24 303 3845
vector 52122  Network.dyn_peer[61]  lookupTimeSig:vector  ETV
52122	285048 1102 4191 155753 516.7 6352.160913370611 33 0.3 2.5 33.5 44.69
vector 52125  Network.dyn_peer[62]  lookupHopsSig:vector  ETV
52125	287714 486 4241 32208 524.2 2172.137764493402 16 2 12 110 928
vector 52124  Network.dyn_peer[62]  lookupTimeSig:vector  ETV
52124	287203 511 4241 32208 524.2 2172.137764493402 16 0.2 1.3 12.5 11.59
vector 52127  Network.dyn_peer[63]  lookupHopsSig:vector  ETV
52127	288543 323 4373 42255 532.5 2571.84403884438 11 1 13 74 612
vector 52126  Network.dyn_peer[63]  lookupTimeSig:vector  ETV
52126	288200 343 4373 42255 532.5 2571.84403884438 11 0.2 1.4 8.4 7.6
vector 52129  Network.dyn_peer[64]  lookupHopsSig:vector  ETV
52129	290248 1324 4444 200800 540.8 7655.44336658715 42 1 21 330 3800
vector 52128  Network.dyn_peer[64]  lookupTimeSig:vector  ETV
52128	288866 1382 4444 200800 540.8 7655.44336658715 42 0.2 2.2 37.1 44.85
vector 52131  Network.dyn_peer[65]  lookupHopsSig:vector  ETV
52131	292973 1337 4528 164121 548.5 6623.348761804578 42 1 27 374 4744
vector 52130  Network.dyn_peer[65]  lookupTimeSig:vector  ETV
52130	291572 1401 4528 164121 548.5 6623.348761804578 42 0.2 2.8 41.5 55.23
vector 52133  Network.dyn_peer[66]  lookupHopsSig:vector  ETV
52133	295045 702 4707 167586 556.4 6704.133696322319 23 1 23 196 2406
vector 52132  Network.dyn_peer[66]  lookupTimeSig:vector  ETV
52132	294310 735 4707 167586 556.4 6704.133696322319 23 0.2 2.4 21.8 28.12
vector 52135  Network.dyn_peer[67]  lookupHopsSig:vector  ETV
52135	296585 801 4808 195124 564.9 7515.962598864695 25 2 23 254 3394
vector 52134  Network.dyn_peer[67]  lookupTimeSig:vector  ETV
52134	295747 838 4808 195124 564.9 7515.962598864695 25 0.3 2.4 27.8 39.08
vector 52137  Network.dyn_peer[68]  lookupHopsSig:vector  ETV
52137	298288 860 4905 141577 572.2 5910.710492630087 28 2 24 235 2801
vector 52136  Network.dyn_peer[68]  lookupTimeSig:vector  ETV
52136	297386 902 4905 141577 572.2 5910.710492630087 28 0.2 2.5 26.2 32.94
vector 52139  Network.dyn_peer[69]  lookupHopsSig:vector  ETV
52139	300650 1441 4989 198741 580.4 7611.971483286146 45 2 29 480 6972
vector 52138  Network.dyn_peer[69]  lookupTimeSig:vector  ETV
52138	299148 1502 4989 198741 580.4 7611.971483286146 45 0.3 3 52.4 79.68
vector 52141  Network.dyn_peer[70]  lookupHopsSig:vector  ETV
52141	303378 1230 5086 196281 588.3 7536.722434023357 39 2 21 350 4238
vector 52140  Network.dyn_peer[70]  lookupTimeSig:vector  ETV
52140	302091 1287 5086 196281 588.3 7536.722434023357 39 0.3 2.2 38.8 49.7
vector 52143  Network.dyn_peer[71]  lookupHopsSig:vector  ETV
52143	305805 1135 5271 39710 596.8 2492.127744597031 37 1 17 249 2309
vector 52142  Network.dyn_peer[71]  lookupTimeSig:vector  ETV
52142	304608 1197 5271 39710 596.8 2492.127744597031 37 0.2 1.8 28.5 28.27
vector 52145  Network.dyn_peer[72]  lookupHopsSig:vector  ETV
52145	307076 126 5383 5458 604.3 606.211405448319 5 2 6 18 78
vector 52144  Network.dyn_peer[72]  lookupTimeSig:vector  ETV
52144	306940 136 5383 5458 604.3 606.211405448319 5 0.3 0.7 2.2 1.12
vector 52147  Network.dyn_peer[73]  lookupHopsSig:vector  ETV
52147	308289 1036 5516 186572 612.4 7261.739323384005 33 2 22 284 3170
vector 52146  Network.dyn_peer[73]  lookupTimeSig:vector  ETV
52146	307202 1087 5516 186572 612.4 7261.739323384005 33 0.3 2.3 31.6 37.62
vector 52149  Network.dyn_peer[74]  lookupHopsSig:vector  ETV
52149	310675 1301 5616 212394 620.4 7962.326802820695 40 1 26 477 7443
vector 52148  Network.dyn_peer[74]  lookupTimeSig:vector  ETV
52148	309325 1350 5616 212394 620.4 7962.326802820695 40 0.2 2.7 51.6 84.28
vector 52151  Network.dyn_peer[75]  lookupHopsSig:vector  ETV
52151	313039 1013 5646 62672 628.3 3339.639358429223 33 1 14 230 1976
vector 52150  Network.dyn_peer[75]  lookupTimeSig:vector  ETV
52150	311976 1063 5646 62672 628.3 3339.639358429223 33 0.2 1.5 26.2 24.62
vector 52153  Network.dyn_peer[76]  lookupHopsSig:vector  ETV
52153	315079 982 5741 158319 636.6 6426.445095555044 31 1 22 274 3354
vector 52152  Network.dyn_peer[76]  lookupTimeSig:vector  ETV
52152	314052 1027 5741 158319 636.6 6426.445095555044 31 0.2 2.3 30.4 39.2
vector 52155  Network.dyn_peer[77]  lookupHopsSig:vector  ETV
52155	316876 786 5837 126643 644.3 5519.241097965046 25 2 21 235 2841
vector 52154  Network.dyn_peer[77]  lookupTimeSig:vector  ETV
52154	316061 815 5837 126643 644.3 5519.241097965046 25 0.3 2.2 25.9 33.29
vector 52157  Network.dyn_peer[78]  lookupHopsSig:vector  ETV
52157	318923 1208 6001 214799 652.1 8028.525823048179 38 1 32 373 5565
vector 52156  Network.dyn_peer[78]  lookupTimeSig:vector  ETV
52156	317662 1261 6001 214799 652.1 8028.525823048179 38 0.1 3.3 41 63.46
vector 52159  Network.dyn_peer[79]  lookupHopsSig:vector  ETV
52159	321159 983 6039 177845 660.7 7003.416777099709 31 2 41 338 6358
vector 52158  Network.dyn_peer[79]  lookupTimeSig:vector  ETV
52158	320131 1028 6039 177845 660.7 7003.416777099709 31 0.3 4.2 36.8 70.5
vector 52161  Network.dyn_peer[80]  lookupHopsSig:vector  ETV
52161	323682 1474 6177 112257 668.3 5089.218828239106 47 2 21 436 5560
vector 52160  Network.dyn_peer[80]  lookupTimeSig:vector  ETV
52160	322142 1540 6177 112257 668.3 5089.218828239106 47 0.3 2.2 48.2 64.72
vector 52163  Network.dyn_peer[81]  lookupHopsSig:vector  ETV
52163	326444 1232 6297 109203 677.1 5003.619440675102 39 1 21 321 3607
vector 52162  Network.dyn_peer[81]  lookupTimeSig:vector  ETV
52162	325156 1288 6297 109203 677.1 5003.619440675102 39 0.2 2.2 35.9 42.65
vector 52165  Network.dyn_peer[82]  lookupHopsSig:vector  ETV
52165	328559 837 6349 185411 684.7 7234.845854595955 27 1 13 162 1280
vector 52164  Network.dyn_peer[82]  lookupTimeSig:vector  ETV
52164	327676 883 6349 185411 684.7 7234.845854595955 27 0.2 1.4 18.8 16.16
vector 52167  Network.dyn_peer[83]  lookupHopsSig:vector  ETV
52167	330314 872 6472 150319 692.4 6175.814845917305 28 3 18 212 2194
vector 52166  Network.dyn_peer[83]  lookupTimeSig:vector  ETV
52166	329396 918 6472 150319 692.4 6175.814845917305 28 0.4 1.9 23.9 26.37
vector 52169  Network.dyn_peer[84]  lookupHopsSig:vector  ETV
52169	332107 877 6578 211027 700.3 7926.52702284854 28 2 27 224 2762
vector 52168  Network.dyn_peer[84]  lookupTimeSig:vector  ETV
52168	331186 921 6578 211027 700.3 7926.52702284854 28 0.3 2.8 25.1 32.31
vector 52171  Network.dyn_peer[85]  lookupHopsSig:vector  ETV
52171	334331 1293 6727 136915 708.8 5794.950483825682 41 1 28 377 5315
vector 52170  Network.dyn_peer[85]  lookupTimeSig:vector  ETV
52170	332984 1347 6727 136915 708.8 5794.950483825682 41 0.2 2.9 41.7 60.93
vector 52173  Network.dyn_peer[86]  lookupHopsSig:vector  ETV
52173	336027 381 6851 23888 716.8 1754.633993628792 13 2 14 84 724
vector 52172  Network.dyn_peer[86]  lookupTimeSig:vector  ETV
52172	335624 403 6851 23888 716.8 1754.633993628792 13 0.3 1.5 9.6 8.88
vector 52175  Network.dyn_peer[87]  lookupHopsSig:vector  ETV
52175	337598 1148 6906 178635 724.5 7028.522370354922 36 1 29 427 7065
vector 52174  Network.dyn_peer[87]  lookupTimeSig:vector  ETV
52174	336408 1190 6906 178635 724.5 7028.522370354922 36 0.2 3 46.2 79.44
vector 52177  Network.dyn_peer[88]  lookupHopsSig:vector  ETV
52177	339828 1032 7005 171419 732 6817.149087665709 33 0 20 258 2716
vector 52176  Network.dyn_peer[88]  lookupTimeSig:vector  ETV
52176	338746 1082 7005 171419 732 6817.149087665709 33 0 2.1 29 32.64
vector 52179  Network.dyn_peer[89]  lookupHopsSig:vector  ETV
52179	341030 159 7050 7137 740.3 744.224590591406 6 3 14 37 311
vector 52178  Network.dyn_peer[89]  lookupTimeSig:vector  ETV
52178	340860 170 7050 7137 740.3 744.224590591406 6 0.3 1.5 4.2 3.84
vector 52181  Network.dyn_peer[90]  lookupHopsSig:vector  ETV
52181	342009 782 7147 114652 748.2 5173.226596070978 25 2 21 216 2562
vector 52180  Network.dyn_peer[90]  lookupTimeSig:vector  ETV
52180	341189 820 7147 114652 748.2 5173.226596070978 25 0.2 2.2 24 30.14
vector 52183  Network.dyn_peer[91]  lookupHopsSig:vector  ETV
52183	344373 1509 7187 176496 756.3 6970.039242729506 48 1 22 336 3248
vector 52182  Network.dyn_peer[91]  lookupTimeSig:vector  ETV
52182	342791 1582 7187 176496 756.3 6970.039242729506 48 0.2 2.3 38.3 39.61
vector 52185  Network.dyn_peer[92]  lookupHopsSig:vector  ETV
52185	347169 1230 7291 203251 764.7 7730.951792130699 39 2 22 354 4158
vector 52184  Network.dyn_peer[92]  lookupTimeSig:vector  ETV
52184	345882 1287 7291 203251 764.7 7730.951792130699 39 0.3 2.3 39.2 48.9
vector 52187  Network.dyn_peer[93]  lookupHopsSig:vector  ETV
52187	349508 1064 7437 128298 773 5557.138509954964 34 1 20 301 3595
vector 52186  Network.dyn_peer[93]  lookupTimeSig:vector  ETV
52186	348399 1109 7437 128298 773 5557.138509954964 34 0.2 2.1 33.4 42.1
vector 52189  Network.dyn_peer[94]  lookupHopsSig:vector  ETV
52189	351771 1145 7491 213094 780.6 7979.936432283545 36 2 36 384 6064
vector 52188  Network.dyn_peer[94]  lookupTimeSig:vector  ETV
52188	350572 1199 7491 213094 780.6 7979.936432283545 36 0.3 3.7 41.9 68.55
vector 52191  Network.dyn_peer[95]  lookupHopsSig:vector  ETV
52191	354542 1558 7725 203462 788.7 7740.619079619491 49 2 34 512 8000
vector 52190  Network.dyn_peer[95]  lookupTimeSig:vector  ETV
52190	352916 1626 7725 203462 788.7 7740.619079619491 49 0.3 3.5 56 90.58
vector 52193  Network.dyn_peer[96]  lookupHopsSig:vector  ETV
52193	356777 644 7817 207143 796.4 7820.229525403345 21 1 16 163 1607
vector 52192  Network.dyn_peer[96]  lookupTimeSig:vector  ETV
52192	356100 677 7817 207143 796.4 7820.229525403345 21 0.2 1.7 18.3 19.45
vector 52195  Network.dyn_peer[97]  lookupHopsSig:vector  ETV
52195	358465 994 7942 123614 804.6 5444.976645709232 32 2 24 279 3449
vector 52194  Network.dyn_peer[97]  lookupTimeSig:vector  ETV
52194	357421 1044 7942 123614 804.6 5444.976645709232 32 0.3 2.5 31 40.26
vector 52197  Network.dyn_peer[98]  lookupHopsSig:vector  ETV
52197	360392 899 8047 193232 812.2 7454.638053698955 28 1 30 297 4411
vector 52196  Network.dyn_peer[98]  lookupTimeSig:vector  ETV
52196	359459 933 8047 193232 812.2 7454.638053698955 28 0.2 3.1 32.4 50.28
vector 52199  Network.dyn_peer[99]  lookupHopsSig:vector  ETV
52199	361868 553 8120 146582 820.6 6071.034793013557 18 3 28 210 3316
vector 52198  Network.dyn_peer[99]  lookupTimeSig:vector  ETV
52198	361291 577 8120 146582 820.6 6071.034793013557 18 0.4 2.9 22.7 37.41
vector 52201  Network.dyn_peer[100]  lookupHopsSig:vector  ETV
52201	363429 963 8185 165639 828.6 6657.019354488312 31 2 27 334 5274
vector 52200  Network.dyn_peer[100]  lookupTimeSig:vector  ETV
52200	362421 1008 8185 165639 828.6 6657.019354488312 31 0.3 2.8 36.4 59.6
vector 52203  Network.dyn_peer[101]  lookupHopsSig:vector  ETV
52203	364824 416 8334 209062 837 7869.520934742554 14 2 32 137 2037
vector 52202  Network.dyn_peer[101]  lookupTimeSig:vector  ETV
52202	364392 432 8334 209062 837 7869.520934742554 14 0.3 3.3 15 23.04
vector 52205  Network.dyn_peer[102]  lookupHopsSig:vector  ETV
52205	365856 587 8514 188710 844.4 7315.525763214316 19 1 24 169 2415
vector 52204  Network.dyn_peer[102]  lookupTimeSig:vector  ETV
52204	365240 616 8514 188710 844.4 7315.525763214316 19 0.2 2.5 18.7 27.63
vector 52207  Network.dyn_peer[103]  lookupHopsSig:vector  ETV
52207	366577 127 8566 8672 852.7 855.616676867184 5 2 12 32 282
vector 52206  Network.dyn_peer[103]  lookupTimeSig:vector  ETV
52206	366443 134 8566 8672 852.7 855.616676867184 5 0.3 1.3 3.6 3.36
vector 52209  Network.dyn_peer[104]  lookupHopsSig:vector  ETV
52209	367526 792 8739 205717 860.4 7791.838035818854 25 4 19 261 3279
vector 52208  Network.dyn_peer[104]  lookupTimeSig:vector  ETV
52208	366704 822 8739 205717 860.4 7791.838035818854 25 0.4 2 28.5 38.17
vector 52211  Network.dyn_peer[105]  lookupHopsSig:vector  ETV
52211	369457 1081 8880 203760 868.3 7748.434143117134 34 1 20 241 2547
vector 52210  Network.dyn_peer[105]  lookupTimeSig:vector  ETV
52210	368318 1139 8880 203760 868.3 7748.434143117134 34 0.2 2.1 27.4 30.56
vector 52213  Network.dyn_peer[106]  lookupHopsSig:vector  ETV
52213	371210 643 8934 158128 876.3 6422.13262989132 21 2 19 164 1598
vector 52212  Network.dyn_peer[106]  lookupTimeSig:vector  ETV
52212	370538 672 8934 158128 876.3 6422.13262989132 21 0.3 2 18.4 19.4
vector 52215  Network.dyn_peer[107]  lookupHopsSig:vector  ETV
52215	373383 1459 9120 199089 884.4 7620.035805653716 46 2 28 418 5568
vector 52214  Network.dyn_peer[107]  lookupTimeSig:vector  ETV
52214	371853 1530 9120 199089 884.4 7620.035805653716 46 0.3 2.9 46.3 64.41
vector 52217  Network.dyn_peer[108]  lookupHopsSig:vector  ETV
52217	375954 1054 9264 180756 892.5 7090.627898017228 34 1 20 200 1872
vector 52216  Network.dyn_peer[108]  lookupTimeSig:vector  ETV
52216	374842 1112 9264 180756 892.5 7090.627898017228 34 0.2 2.1 23.3 22.95
vector 52219  Network.dyn_peer[109]  lookupHopsSig:vector  ETV
52219	377992 942 9384 123072 900.1 5430.056025359225 30 1 20 264 3106
vector 52218  Network.dyn_peer[109]  lookupTimeSig:vector  ETV
52218	377008 984 9384 123072 900.1 5430.056025359225 30 0.1 2.1 29.3 36.61