file 711241 1369674141                                          
version 2
run Stability-219-20130521-22:42:32-23591
attr configname Stability
attr datetime 20130521-22:42:32
attr experiment Stability
attr inifile omnetpp.ini
attr iterationvars $0=0.0625
attr iterationvars2 "$0=0.0625, $repetition=9"
attr measurement $0=0.0625
attr network Network
attr processid 23591
attr repetition 9
attr replication #9
attr resultdir results
attr runnumber 219
attr seedset 219
vector 438001  Network.dyn_peer[0]  lookupHopsSig:vector  ETV
438001	129145 911 113 109792 20.2625 74.520374730018 30 1 24 233 2869
vector 438000  Network.dyn_peer[0]  lookupTimeSig:vector  ETV
438000	128184 961 113 109792 20.2625 74.520374730018 30 0.2 2.5 26.2 33.6
vector 438003  Network.dyn_peer[1]  lookupHopsSig:vector  ETV
438003	130617 539 122 65469 20.325 59.781240519246 18 2 40 214 4214
vector 438002  Network.dyn_peer[1]  lookupTimeSig:vector  ETV
438002	130056 561 122 65469 20.325 59.781240519246 18 0.2 4.1 23.1 46.55
vector 438005  Network.dyn_peer[2]  lookupHopsSig:vector  ETV
438005	131591 414 132 113711 20.3875 75.794271337078 14 2 29 114 1594
vector 438004  Network.dyn_peer[2]  lookupTimeSig:vector  ETV
438004	131156 435 132 113711 20.3875 75.794271337078 14 0.2 3 12.7 18.31
vector 438007  Network.dyn_peer[3]  lookupHopsSig:vector  ETV
438007	132727 694 142 156756 20.45 93.117309017671 23 2 24 227 3295
vector 438006  Network.dyn_peer[3]  lookupTimeSig:vector  ETV
438006	132005 722 142 156756 20.45 93.117309017671 23 0.2 2.5 24.9 37.67
vector 438009  Network.dyn_peer[4]  lookupHopsSig:vector  ETV
438009	133822 381 166 55271 20.6125 55.695564531862 13 1 16 113 1329
vector 438008  Network.dyn_peer[4]  lookupTimeSig:vector  ETV
438008	133421 401 166 55271 20.6125 55.695564531862 13 0.2 1.7 12.5 15.61
vector 438017  Network.dyn_peer[8]  lookupHopsSig:vector  ETV
438017	138178 715 198 55342 20.7625 55.723616255946 24 2 17 129 1029
vector 438016  Network.dyn_peer[8]  lookupTimeSig:vector  ETV
438016	137421 757 198 55342 20.7625 55.723616255946 24 0.2 1.8 15.2 13.06
vector 438015  Network.dyn_peer[7]  lookupHopsSig:vector  ETV
438015	136823 598 207 94153 20.8 69.510227485307 20 2 27 227 3587
vector 438014  Network.dyn_peer[7]  lookupTimeSig:vector  ETV
438014	136197 626 207 94153 20.8 69.510227485307 20 0.3 2.8 24.6 40.54
vector 438019  Network.dyn_peer[9]  lookupHopsSig:vector  ETV
438019	139534 619 216 133873 20.825 82.245886939959 20 1 25 232 3484
vector 438018  Network.dyn_peer[9]  lookupTimeSig:vector  ETV
438018	138893 641 216 133873 20.825 82.245886939959 20 0.2 2.6 25.1 39.63
vector 438013  Network.dyn_peer[6]  lookupHopsSig:vector  ETV
438013	135662 535 223 72942 20.8375 62.582258043128 18 1 29 190 3506
vector 438012  Network.dyn_peer[6]  lookupTimeSig:vector  ETV
438012	135101 561 223 72942 20.8375 62.582258043128 18 0.2 3 20.7 38.95
vector 438023  Network.dyn_peer[11]  lookupHopsSig:vector  ETV
438023	142149 470 229 58450 20.85 56.963493263105 16 1 18 109 1193
vector 438022  Network.dyn_peer[11]  lookupTimeSig:vector  ETV
438022	141653 496 229 58450 20.85 56.963493263105 16 0.1 1.9 12.4 14.24
vector 438011  Network.dyn_peer[5]  lookupHopsSig:vector  ETV
438011	134666 435 238 30735 20.875 44.708078283344 15 1 17 89 759
vector 438010  Network.dyn_peer[5]  lookupTimeSig:vector  ETV
438010	134203 463 238 30735 20.875 44.708078283344 15 0.2 1.8 10.3 9.41
vector 438021  Network.dyn_peer[10]  lookupHopsSig:vector  ETV
438021	140923 730 247 129096 20.8875 80.778121909733 24 1 37 220 3982
vector 438020  Network.dyn_peer[10]  lookupTimeSig:vector  ETV
438020	140153 770 247 129096 20.8875 80.778121909733 24 0.2 3.8 24.3 44.41
vector 438027  Network.dyn_peer[13]  lookupHopsSig:vector  ETV
438027	144505 383 269 70246 20.975 61.609762379976 13 1 29 140 2192
vector 438026  Network.dyn_peer[13]  lookupTimeSig:vector  ETV
438026	144105 400 269 70246 20.975 61.609762379976 13 0.1 3 15.2 24.82
vector 438031  Network.dyn_peer[15]  lookupHopsSig:vector  ETV
438031	146914 935 334 90181 21.2 68.256400795381 31 1 28 268 3520
vector 438030  Network.dyn_peer[15]  lookupTimeSig:vector  ETV
438030	145930 984 334 90181 21.2 68.256400795381 31 0.2 2.9 29.8 40.82
vector 438025  Network.dyn_peer[12]  lookupHopsSig:vector  ETV
438025	143379 726 363 95007 21.3125 69.77595160125 24 2 27 222 2970
vector 438024  Network.dyn_peer[12]  lookupTimeSig:vector  ETV
438024	142619 760 363 95007 21.3125 69.77595160125 24 0.3 2.8 24.5 34.27
vector 438029  Network.dyn_peer[14]  lookupHopsSig:vector  ETV
438029	145421 509 374 70505 21.3375 61.709818022814 17 1 22 150 1876
vector 438028  Network.dyn_peer[14]  lookupTimeSig:vector  ETV
438028	144888 533 374 70505 21.3375 61.709818022814 17 0.2 2.3 16.6 21.84
vector 438045  Network.dyn_peer[22]  lookupHopsSig:vector  ETV
438045	157025 670 412 156501 21.4375 92.823479785642 22 0 30 247 4393
vector 438044  Network.dyn_peer[22]  lookupTimeSig:vector  ETV
438044	156324 701 412 156501 21.4375 92.823479785642 22 0 3.1 26.8 49.08
vector 438043  Network.dyn_peer[21]  lookupHopsSig:vector  ETV
438043	155778 546 426 112928 21.475 75.544904814784 18 1 25 236 3834
vector 438042  Network.dyn_peer[21]  lookupTimeSig:vector  ETV
438042	155210 568 426 112928 21.475 75.544904814784 18 0.1 2.6 25.3 43.21
vector 438037  Network.dyn_peer[18]  lookupHopsSig:vector  ETV
438037	150770 634 434 76365 21.4875 63.751215654373 21 2 39 243 4439
vector 438036  Network.dyn_peer[18]  lookupTimeSig:vector  ETV
438036	150111 659 434 76365 21.4875 63.751215654373 21 0.3 4 26.3 49.39
vector 438035  Network.dyn_peer[17]  lookupHopsSig:vector  ETV
438035	149673 438 456 45044 21.525 51.490038297665 15 3 11 87 599
vector 438034  Network.dyn_peer[17]  lookupTimeSig:vector  ETV
438034	149207 466 456 45044 21.525 51.490038297665 15 0.4 1.2 10.1 7.79
vector 438041  Network.dyn_peer[20]  lookupHopsSig:vector  ETV
438041	154586 624 487 28846 21.6125 43.689333887731 21 1 14 140 1272
vector 438040  Network.dyn_peer[20]  lookupTimeSig:vector  ETV
438040	153928 658 487 28846 21.6125 43.689333887731 21 0.2 1.5 16 15.66
vector 438033  Network.dyn_peer[16]  lookupHopsSig:vector  ETV
438033	148544 663 506 96617 21.6625 70.285047404038 22 1 26 216 3286
vector 438032  Network.dyn_peer[16]  lookupTimeSig:vector  ETV
438032	147849 695 506 96617 21.6625 70.285047404038 22 0.2 2.7 23.7 37.27
vector 438051  Network.dyn_peer[25]  lookupHopsSig:vector  ETV
438051	160880 523 540 152254 21.725 89.517320958994 17 1 55 193 4881
vector 438050  Network.dyn_peer[25]  lookupTimeSig:vector  ETV
438050	160333 547 540 152254 21.725 89.517320958994 17 0.1 5.6 20.9 52.81
vector 438047  Network.dyn_peer[23]  lookupHopsSig:vector  ETV
438047	158743 997 569 152631 21.8 89.734526888468 33 1 32 290 4262
vector 438046  Network.dyn_peer[23]  lookupTimeSig:vector  ETV
438046	157695 1048 569 152631 21.8 89.734526888468 33 0.2 3.3 32.2 48.68
vector 438039  Network.dyn_peer[19]  lookupHopsSig:vector  ETV
438039	152694 1234 680 148724 22.05 87.666294352654 40 1 23 405 5303
vector 438038  Network.dyn_peer[19]  lookupTimeSig:vector  ETV
438038	151404 1290 680 148724 22.05 87.666294352654 40 0.2 2.4 44.4 61.36
vector 438049  Network.dyn_peer[24]  lookupHopsSig:vector  ETV
438049	160044 289 689 20041 22.0625 38.722768171775 10 1 17 72 720
vector 438048  Network.dyn_peer[24]  lookupTimeSig:vector  ETV
438048	159740 304 689 20041 22.0625 38.722768171775 10 0.2 1.8 8.1 8.63
vector 438053  Network.dyn_peer[26]  lookupHopsSig:vector  ETV
438053	162109 674 708 144227 22.0875 85.735701691813 22 2 25 218 3206
vector 438052  Network.dyn_peer[26]  lookupTimeSig:vector  ETV
438052	161403 706 708 144227 22.0875 85.735701691813 22 0.3 2.6 23.9 36.55
vector 438055  Network.dyn_peer[27]  lookupHopsSig:vector  ETV
438055	163209 403 740 39873 22.15 49.140759709099 14 1 20 95 991
vector 438054  Network.dyn_peer[27]  lookupTimeSig:vector  ETV
438054	162783 426 740 39873 22.15 49.140759709099 14 0.2 2.1 10.8 11.86
vector 438065  Network.dyn_peer[32]  lookupHopsSig:vector  ETV
438065	170038 382 793 43521 22.2625 50.812289759405 13 2 17 91 945
vector 438064  Network.dyn_peer[32]  lookupTimeSig:vector  ETV
438064	169635 403 793 43521 22.2625 50.812289759405 13 0.2 1.8 10.3 11.35
vector 438059  Network.dyn_peer[29]  lookupHopsSig:vector  ETV
438059	165470 960 800 140063 22.275 84.222168360676 31 2 30 310 4136
vector 438058  Network.dyn_peer[29]  lookupTimeSig:vector  ETV
438058	164469 1001 800 140063 22.275 84.222168360676 31 0.3 3.1 34 47.78
vector 438063  Network.dyn_peer[31]  lookupHopsSig:vector  ETV
438063	169003 632 815 111257 22.3 74.992387625475 21 1 26 238 3742
vector 438062  Network.dyn_peer[31]  lookupTimeSig:vector  ETV
438062	168346 657 815 111257 22.3 74.992387625475 21 0.2 2.7 25.8 42.32
vector 438061  Network.dyn_peer[30]  lookupHopsSig:vector  ETV
438061	167409 937 880 79967 22.4375 64.953381916399 31 2 28 260 3064
vector 438060  Network.dyn_peer[30]  lookupTimeSig:vector  ETV
438060	166430 979 880 79967 22.4375 64.953381916399 31 0.3 2.9 29 36.04
vector 438057  Network.dyn_peer[28]  lookupHopsSig:vector  ETV
438057	164050 419 923 89645 22.5125 68.091888400608 14 1 37 176 3626
vector 438056  Network.dyn_peer[28]  lookupTimeSig:vector  ETV
438056	163612 438 923 89645 22.5125 68.091888400608 14 0.2 3.8 18.9 39.77
vector 438071  Network.dyn_peer[35]  lookupHopsSig:vector  ETV
438071	173770 443 940 116955 22.55 76.860655426167 15 2 32 136 2368
vector 438070  Network.dyn_peer[35]  lookupTimeSig:vector  ETV
438070	173302 468 940 116955 22.55 76.860655426167 15 0.3 3.3 15 26.48
vector 438069  Network.dyn_peer[34]  lookupHopsSig:vector  ETV
438069	172815 487 1010 143814 22.6875 85.568728047432 16 2 28 171 2697
vector 438068  Network.dyn_peer[34]  lookupTimeSig:vector  ETV
438068	172307 508 1010 143814 22.6875 85.568728047432 16 0.3 2.9 18.6 30.44
vector 438073  Network.dyn_peer[36]  lookupHopsSig:vector  ETV
438073	174985 739 1028 137546 22.7125 83.377215317639 24 1 36 252 4154
vector 438072  Network.dyn_peer[36]  lookupTimeSig:vector  ETV
438072	174213 772 1028 137546 22.7125 83.377215317639 24 0.2 3.7 27.5 46.73
vector 438079  Network.dyn_peer[39]  lookupHopsSig:vector  ETV
438079	178437 286 1066 61520 22.8 58.216551006413 10 2 29 108 2006
vector 438078  Network.dyn_peer[39]  lookupTimeSig:vector  ETV
438078	178139 298 1066 61520 22.8 58.216551006413 10 0.3 3 11.7 22.25
vector 438089  Network.dyn_peer[44]  lookupHopsSig:vector  ETV
438089	183226 421 1130 92708 22.9125 69.05671210948 14 1 31 172 3096
vector 438088  Network.dyn_peer[44]  lookupTimeSig:vector  ETV
438088	182786 440 1130 92708 22.9125 69.05671210948 14 0.1 3.2 18.5 34.51
vector 438067  Network.dyn_peer[33]  lookupHopsSig:vector  ETV
438067	171387 920 1139 125079 22.925 79.517415952457 30 1 37 320 5506
vector 438066  Network.dyn_peer[33]  lookupTimeSig:vector  ETV
438066	170420 967 1139 125079 22.925 79.517415952457 30 0.2 3.8 34.9 61.59
vector 438081  Network.dyn_peer[40]  lookupHopsSig:vector  ETV
438081	179132 387 1159 139690 22.9625 84.089047526172 13 1 26 99 1627
vector 438080  Network.dyn_peer[40]  lookupTimeSig:vector  ETV
438080	178723 409 1159 139690 22.9625 84.089047526172 13 0.2 2.7 11.1 18.29
vector 438075  Network.dyn_peer[37]  lookupHopsSig:vector  ETV
438075	176327 581 1278 158853 23.175 97.467805481179 19 3 54 269 5975
vector 438074  Network.dyn_peer[37]  lookupTimeSig:vector  ETV
438074	175724 603 1278 158853 23.175 97.467805481179 19 0.4 5.5 28.7 65.15
vector 438091  Network.dyn_peer[45]  lookupHopsSig:vector  ETV
438091	184782 1087 1282 159533 23.175 102.636702641287 35 1 38 400 6572
vector 438090  Network.dyn_peer[45]  lookupTimeSig:vector  ETV
438090	183647 1135 1282 159533 23.175 102.636702641287 35 0.2 3.9 43.4 74
vector 438085  Network.dyn_peer[42]  lookupHopsSig:vector  ETV
438085	181234 824 1294 98420 23.1875 70.854375913356 27 2 21 228 2472
vector 438084  Network.dyn_peer[42]  lookupTimeSig:vector  ETV
438084	180371 863 1294 98420 23.1875 70.854375913356 27 0.3 2.2 25.4 29.44
vector 438097  Network.dyn_peer[48]  lookupHopsSig:vector  ETV
438097	189861 1147 1338 156455 23.2625 92.773160103237 37 2 40 424 6970
vector 438096  Network.dyn_peer[48]  lookupTimeSig:vector  ETV
438096	188664 1197 1338 156455 23.2625 92.773160103237 37 0.2 4.1 46 78.5
vector 438083  Network.dyn_peer[41]  lookupHopsSig:vector  ETV
438083	179954 417 1388 108292 23.325 74.018654849634 14 5 39 172 3588
vector 438082  Network.dyn_peer[41]  lookupTimeSig:vector  ETV
438082	179519 435 1388 108292 23.325 74.018654849634 14 0.6 4 18.5 39.31
vector 438093  Network.dyn_peer[46]  lookupHopsSig:vector  ETV
438093	186734 827 1397 142396 23.3375 85.042059385219 27 1 26 268 3992
vector 438092  Network.dyn_peer[46]  lookupTimeSig:vector  ETV
438092	185869 865 1397 142396 23.3375 85.042059385219 27 0.2 2.7 29.4 45.46
vector 438101  Network.dyn_peer[50]  lookupHopsSig:vector  ETV
438101	192764 859 1430 114039 23.3875 75.905714100077 28 1 22 268 3384
vector 438100  Network.dyn_peer[50]  lookupTimeSig:vector  ETV
438100	191865 899 1430 114039 23.3875 75.905714100077 28 0.2 2.3 29.5 39.43
vector 438095  Network.dyn_peer[47]  lookupHopsSig:vector  ETV
438095	188124 540 1436 125203 23.4 79.55273501084 18 1 27 187 2725
vector 438094  Network.dyn_peer[47]  lookupTimeSig:vector  ETV
438094	187561 563 1436 125203 23.4 79.55273501084 18 0.2 2.8 20.4 31.08
vector 438087  Network.dyn_peer[43]  lookupHopsSig:vector  ETV
438087	182429 357 1528 114029 23.55 75.901718591137 12 2 24 128 2002
vector 438086  Network.dyn_peer[43]  lookupTimeSig:vector  ETV
438086	182058 371 1528 114029 23.55 75.901718591137 12 0.3 2.5 13.9 22.53
vector 438077  Network.dyn_peer[38]  lookupHopsSig:vector  ETV
438077	177539 600 1589 80534 23.6375 65.143730633348 20 2 29 171 2307
vector 438076  Network.dyn_peer[38]  lookupTimeSig:vector  ETV
438076	176908 631 1589 80534 23.6375 65.143730633348 20 0.3 3 19 26.44
vector 438099  Network.dyn_peer[49]  lookupHopsSig:vector  ETV
438099	191447 418 1642 137628 23.725 83.402147754513 14 2 34 129 2305
vector 438098  Network.dyn_peer[49]  lookupTimeSig:vector  ETV
438098	191008 439 1642 137628 23.725 83.402147754513 14 0.3 3.5 14.2 25.64
vector 438109  Network.dyn_peer[54]  lookupHopsSig:vector  ETV
438109	198620 572 1655 133152 23.7375 82.02144062999 19 3 26 170 2046
vector 438108  Network.dyn_peer[54]  lookupTimeSig:vector  ETV
438108	198020 600 1655 133152 23.7375 82.02144062999 19 0.3 2.7 18.8 23.98
vector 438103  Network.dyn_peer[51]  lookupHopsSig:vector  ETV
438103	194226 577 1664 151074 23.75 88.858170789121 19 1 28 243 4527
vector 438102  Network.dyn_peer[51]  lookupTimeSig:vector  ETV
438102	193623 603 1664 151074 23.75 88.858170789121 19 0.2 2.9 26.1 50.21
vector 438113  Network.dyn_peer[56]  lookupHopsSig:vector  ETV
438113	200909 450 1674 67055 23.7625 60.392043408452 15 2 25 134 1612
vector 438112  Network.dyn_peer[56]  lookupTimeSig:vector  ETV
438112	200436 473 1674 67055 23.7625 60.392043408452 15 0.2 2.6 14.8 18.9
vector 438115  Network.dyn_peer[57]  lookupHopsSig:vector  ETV
438115	202157 765 1783 119779 23.925 77.783302231133 25 1 26 251 3597
vector 438114  Network.dyn_peer[57]  lookupTimeSig:vector  ETV
438114	201359 798 1783 119779 23.925 77.783302231133 25 0.2 2.7 27.5 41.17
vector 438111  Network.dyn_peer[55]  lookupHopsSig:vector  ETV
438111	199829 607 1839 149134 24 87.865881481461 20 1 20 176 2266
vector 438110  Network.dyn_peer[55]  lookupTimeSig:vector  ETV
438110	199192 637 1839 149134 24 87.865881481461 20 0.2 2.1 19.5 26.27
vector 438123  Network.dyn_peer[61]  lookupHopsSig:vector  ETV
438123	207696 980 1899 137020 24.075 83.215422660155 32 1 25 313 4441
vector 438122  Network.dyn_peer[61]  lookupTimeSig:vector  ETV
438122	206670 1026 1899 137020 24.075 83.215422660155 32 0.2 2.6 34.4 50.94
vector 438127  Network.dyn_peer[63]  lookupHopsSig:vector  ETV
438127	209861 687 1978 89362 24.2 68.003528221015 23 2 35 250 3884
vector 438126  Network.dyn_peer[63]  lookupTimeSig:vector  ETV
438126	209142 719 1978 89362 24.2 68.003528221015 23 0.2 3.6 27.2 44.02
vector 438121  Network.dyn_peer[60]  lookupHopsSig:vector  ETV
438121	206188 482 1988 81674 24.2125 65.51894591071 16 3 21 184 2666
vector 438120  Network.dyn_peer[60]  lookupTimeSig:vector  ETV
438120	205685 503 1988 81674 24.2125 65.51894591071 16 0.4 2.2 19.9 30.41
vector 438117  Network.dyn_peer[58]  lookupHopsSig:vector  ETV
438117	203696 740 2047 129143 24.2875 80.793096770853 24 2 22 260 3556
vector 438116  Network.dyn_peer[58]  lookupTimeSig:vector  ETV
438116	202922 774 2047 129143 24.2875 80.793096770853 24 0.3 2.3 28.3 40.87
vector 438105  Network.dyn_peer[52]  lookupHopsSig:vector  ETV
438105	195403 573 2065 110302 24.3125 74.678104169405 19 1 31 177 2581
vector 438104  Network.dyn_peer[52]  lookupTimeSig:vector  ETV
438104	194803 600 2065 110302 24.3125 74.678104169405 19 0.2 3.2 19.5 29.33
vector 438119  Network.dyn_peer[59]  lookupHopsSig:vector  ETV
438119	205075 610 2091 153406 24.35 90.214826685836 20 3 28 225 3637
vector 438118  Network.dyn_peer[59]  lookupTimeSig:vector  ETV
438118	204436 639 2091 153406 24.35 90.214826685836 20 0.4 2.9 24.4 40.94
vector 438137  Network.dyn_peer[68]  lookupHopsSig:vector  ETV
438137	214315 822 2137 91449 24.4125 68.657054477482 27 1 19 239 2881
vector 438136  Network.dyn_peer[68]  lookupTimeSig:vector  ETV
438136	213458 857 2137 91449 24.4125 68.657054477482 27 0.1 2 26.5 33.83
vector 438129  Network.dyn_peer[64]  lookupHopsSig:vector  ETV
438129	210726 168 2175 49236 24.4625 53.284468099339 6 3 34 70 1526
vector 438128  Network.dyn_peer[64]  lookupTimeSig:vector  ETV
438128	210548 178 2175 49236 24.4625 53.284468099339 6 0.4 3.5 7.5 16.63
vector 438139  Network.dyn_peer[69]  lookupHopsSig:vector  ETV
438139	215733 570 2190 51973 24.475 54.385339400625 19 1 29 173 2451
vector 438138  Network.dyn_peer[69]  lookupTimeSig:vector  ETV
438138	215137 596 2190 51973 24.475 54.385339400625 19 0.1 3 19.1 28.13
vector 438125  Network.dyn_peer[62]  lookupHopsSig:vector  ETV
438125	208915 227 2242 28340 24.5375 43.415005649185 8 1 21 64 920
vector 438124  Network.dyn_peer[62]  lookupTimeSig:vector  ETV
438124	208676 239 2242 28340 24.5375 43.415005649185 8 0.2 2.2 7.1 10.43
vector 438141  Network.dyn_peer[70]  lookupHopsSig:vector  ETV
438141	216813 490 2317 154040 24.6375 90.65407917952 16 2 19 163 2109
vector 438140  Network.dyn_peer[70]  lookupTimeSig:vector  ETV
438140	216303 510 2317 154040 24.6375 90.65407917952 16 0.2 2 17.8 24.46
vector 438131  Network.dyn_peer[65]  lookupHopsSig:vector  ETV
438131	211401 485 2378 118264 24.725 77.275395708702 16 1 25 147 1923
vector 438130  Network.dyn_peer[65]  lookupTimeSig:vector  ETV
438130	210894 507 2378 118264 24.725 77.275395708702 16 0.2 2.6 16.2 22.2
vector 438147  Network.dyn_peer[73]  lookupHopsSig:vector  ETV
438147	219402 619 2614 142129 25.025 84.945575513489 20 1 32 213 3511
vector 438146  Network.dyn_peer[73]  lookupTimeSig:vector  ETV
438146	218758 644 2614 142129 25.025 84.945575513489 20 0.2 3.3 23.2 39.48
vector 438107  Network.dyn_peer[53]  lookupHopsSig:vector  ETV
438107	197021 999 2658 157726 25.075 94.546785036953 32 1 43 341 5829
vector 438106  Network.dyn_peer[53]  lookupTimeSig:vector  ETV
438106	195976 1045 2658 157726 25.075 94.546785036953 32 0.2 4.4 37.2 65.08
vector 438143  Network.dyn_peer[71]  lookupHopsSig:vector  ETV
438143	217507 195 2687 57330 25.1 56.515011529242 7 1 20 66 856
vector 438142  Network.dyn_peer[71]  lookupTimeSig:vector  ETV
438142	217303 204 2687 57330 25.1 56.515011529242 7 0.2 2.1 7.2 9.82
vector 438153  Network.dyn_peer[76]  lookupHopsSig:vector  ETV
438153	221926 763 2697 136604 25.1125 83.083912706861 25 1 25 254 3566
vector 438152  Network.dyn_peer[76]  lookupTimeSig:vector  ETV
438152	221131 795 2697 136604 25.1125 83.083912706861 25 0.2 2.6 27.8 40.92
vector 438133  Network.dyn_peer[66]  lookupHopsSig:vector  ETV
438133	212254 348 2834 53321 25.2875 54.910874260215 12 1 17 71 653
vector 438132  Network.dyn_peer[66]  lookupTimeSig:vector  ETV
438132	211886 368 2834 53321 25.2875 54.910874260215 12 0.2 1.8 8.2 7.84
vector 438149  Network.dyn_peer[74]  lookupHopsSig:vector  ETV
438149	220358 316 2838 55816 25.2875 55.905821351901 11 1 14 63 477
vector 438148  Network.dyn_peer[74]  lookupTimeSig:vector  ETV
438148	220021 337 2838 55816 25.2875 55.905821351901 11 0.2 1.5 7.3 6.01
vector 438145  Network.dyn_peer[72]  lookupHopsSig:vector  ETV
438145	218241 517 2896 104696 25.3625 72.86518529971 17 1 24 184 2674
vector 438144  Network.dyn_peer[72]  lookupTimeSig:vector  ETV
438144	217702 539 2896 104696 25.3625 72.86518529971 17 0.2 2.5 20 30.42
vector 438159  Network.dyn_peer[79]  lookupHopsSig:vector  ETV
438159	225186 70 2999 6424 25.5 28.906890383521 3 5 16 37 537
vector 438158  Network.dyn_peer[79]  lookupTimeSig:vector  ETV
438158	225112 74 2999 6424 25.5 28.906890383521 3 0.5 1.7 3.9 6.03
vector 438169  Network.dyn_peer[84]  lookupHopsSig:vector  ETV
438169	230138 513 3013 125171 25.5125 79.54334842035 17 1 38 168 3134
vector 438168  Network.dyn_peer[84]  lookupTimeSig:vector  ETV
438168	229600 538 3013 125171 25.5125 79.54334842035 17 0.2 3.9 18.4 34.82
vector 438157  Network.dyn_peer[78]  lookupHopsSig:vector  ETV
438157	224728 384 3029 74373 25.5375 63.078016842776 13 1 23 107 1387
vector 438156  Network.dyn_peer[78]  lookupTimeSig:vector  ETV
438156	224324 404 3029 74373 25.5375 63.078016842776 13 0.2 2.4 11.9 16.01
vector 438165  Network.dyn_peer[82]  lookupHopsSig:vector  ETV
438165	228084 739 3070 143871 25.5875 85.589871625071 24 4 41 271 5109
vector 438164  Network.dyn_peer[82]  lookupTimeSig:vector  ETV
438164	227309 775 3070 143871 25.5875 85.589871625071 24 0.4 4.2 29.4 56.66
vector 438151  Network.dyn_peer[75]  lookupHopsSig:vector  ETV
438151	220910 221 3124 7634 25.65 29.888724001215 8 1 12 44 346
vector 438150  Network.dyn_peer[75]  lookupTimeSig:vector  ETV
438150	220674 236 3124 7634 25.65 29.888724001215 8 0.2 1.3 5.1 4.23
vector 438173  Network.dyn_peer[86]  lookupHopsSig:vector  ETV
438173	232794 873 3192 140546 25.7375 84.39073020601 28 3 27 379 6565
vector 438172  Network.dyn_peer[86]  lookupTimeSig:vector  ETV
438172	231886 908 3192 140546 25.7375 84.39073020601 28 0.3 2.8 40.6 73.44
vector 438163  Network.dyn_peer[81]  lookupHopsSig:vector  ETV
438163	226606 703 3275 138141 25.825 83.569634187334 23 3 40 258 5052
vector 438162  Network.dyn_peer[81]  lookupTimeSig:vector  ETV
438162	225871 735 3275 138141 25.825 83.569634187334 23 0.4 4.1 28 55.76
vector 438161  Network.dyn_peer[80]  lookupHopsSig:vector  ETV
438161	225570 301 3310 137900 25.8625 83.492435091772 10 3 18 111 1469
vector 438160  Network.dyn_peer[80]  lookupTimeSig:vector  ETV
438160	225256 314 3310 137900 25.8625 83.492435091772 10 0.4 1.9 12 16.84
vector 438155  Network.dyn_peer[77]  lookupHopsSig:vector  ETV
438155	223522 802 3321 153127 25.875 90.037123147345 26 4 45 360 8050
vector 438154  Network.dyn_peer[77]  lookupTimeSig:vector  ETV
438154	222689 833 3321 153127 25.875 90.037123147345 26 0.5 4.6 38.5 87.75
vector 438135  Network.dyn_peer[67]  lookupHopsSig:vector  ETV
438135	213038 420 3380 105702 25.95 73.188548533313 14 6 24 181 2657
vector 438134  Network.dyn_peer[67]  lookupTimeSig:vector  ETV
438134	212602 436 3380 105702 25.95 73.188548533313 14 0.7 2.5 19.4 29.98
vector 438167  Network.dyn_peer[83]  lookupHopsSig:vector  ETV
438167	229220 380 3384 144710 25.95 85.924686205824 13 4 37 129 2121
vector 438166  Network.dyn_peer[83]  lookupTimeSig:vector  ETV
438166	228823 397 3384 144710 25.95 85.924686205824 13 0.5 3.8 14.1 23.77
vector 438187  Network.dyn_peer[93]  lookupHopsSig:vector  ETV
438187	239496 357 3504 110763 26.075 74.833785186922 12 2 19 112 1412
vector 438186  Network.dyn_peer[93]  lookupTimeSig:vector  ETV
438186	239124 372 3504 110763 26.075 74.833785186922 12 0.2 2 12.3 16.43
vector 438175  Network.dyn_peer[87]  lookupHopsSig:vector  ETV
438175	234005 323 3529 120031 26.1 77.862813670245 11 1 21 122 1730
vector 438174  Network.dyn_peer[87]  lookupTimeSig:vector  ETV
438174	233667 338 3529 120031 26.1 77.862813670245 11 0.2 2.2 13.2 19.72
vector 438189  Network.dyn_peer[94]  lookupHopsSig:vector  ETV
438189	240425 551 3633 114946 26.2375 76.200475981762 18 2 37 240 4924
vector 438188  Network.dyn_peer[94]  lookupTimeSig:vector  ETV
438188	239853 572 3633 114946 26.2375 76.200475981762 18 0.3 3.8 25.7 54.15
vector 438197  Network.dyn_peer[98]  lookupHopsSig:vector  ETV
438197	244284 335 3774 141757 26.3875 84.817420929759 11 2 23 117 1653
vector 438196  Network.dyn_peer[98]  lookupTimeSig:vector  ETV
438196	243935 349 3774 141757 26.3875 84.817420929759 11 0.2 2.4 12.7 18.93
vector 438185  Network.dyn_peer[92]  lookupHopsSig:vector  ETV
438185	238667 457 3803 156783 26.4125 93.15220935224 15 4 42 214 4256
vector 438184  Network.dyn_peer[92]  lookupTimeSig:vector  ETV
438184	238196 471 3803 156783 26.4125 93.15220935224 15 0.5 4.3 22.8 46.86
vector 438193  Network.dyn_peer[96]  lookupHopsSig:vector  ETV
438193	242069 366 3842 152719 26.4625 89.782825929506 12 2 21 128 1714
vector 438192  Network.dyn_peer[96]  lookupTimeSig:vector  ETV
438192	241688 381 3842 152719 26.4625 89.782825929506 12 0.3 2.2 13.9 19.73
vector 438171  Network.dyn_peer[85]  lookupHopsSig:vector  ETV
438171	231280 606 3857 139524 26.475 84.035284306478 20 2 31 235 3921
vector 438170  Network.dyn_peer[85]  lookupTimeSig:vector  ETV
438170	230651 629 3857 139524 26.475 84.035284306478 20 0.3 3.2 25.4 43.88
vector 438203  Network.dyn_peer[101]  lookupHopsSig:vector  ETV
438203	247143 543 3862 128590 26.475 80.618390858194 18 1 24 163 2111
vector 438202  Network.dyn_peer[101]  lookupTimeSig:vector  ETV
438202	246577 566 3862 128590 26.475 80.618390858194 18 0.1 2.5 18 24.52
vector 438179  Network.dyn_peer[89]  lookupHopsSig:vector  ETV
438179	235454 357 3908 146942 26.525 86.844800023704 12 2 40 166 3544
vector 438178  Network.dyn_peer[89]  lookupTimeSig:vector  ETV
438178	235081 373 3908 146942 26.525 86.844800023704 12 0.3 4.1 17.7 38.69
vector 438199  Network.dyn_peer[99]  lookupHopsSig:vector  ETV
438199	245250 607 3928 149691 26.55 88.137948126289 20 2 36 232 3972
vector 438198  Network.dyn_peer[99]  lookupTimeSig:vector  ETV
438198	244619 631 3928 149691 26.55 88.137948126289 20 0.3 3.7 25.1 44.49
vector 438205  Network.dyn_peer[102]  lookupHopsSig:vector  ETV
438205	247962 266 4116 143201 26.7375 85.34637636722 9 3 24 121 2137
vector 438204  Network.dyn_peer[102]  lookupTimeSig:vector  ETV
438204	247686 276 4116 143201 26.7375 85.34637636722 9 0.3 2.5 12.9 23.81
vector 438191  Network.dyn_peer[95]  lookupHopsSig:vector  ETV
438191	241339 349 4183 61803 26.8 58.335521899712 12 5 35 147 2633
vector 438190  Network.dyn_peer[95]  lookupTimeSig:vector  ETV
438190	240976 363 4183 61803 26.8 58.335521899712 12 0.6 3.6 15.8 29.22
vector 438183  Network.dyn_peer[91]  lookupHopsSig:vector  ETV
438183	237610 586 4225 157860 26.85 94.809268731386 19 1 33 272 5010
vector 438182  Network.dyn_peer[91]  lookupTimeSig:vector  ETV
438182	237005 605 4225 157860 26.85 94.809268731386 19 0.2 3.4 29 55.5
vector 438213  Network.dyn_peer[106]  lookupHopsSig:vector  ETV
438213	250852 164 4268 6789 26.8875 29.212694376409 6 1 6 20 84
vector 438212  Network.dyn_peer[106]  lookupTimeSig:vector  ETV
438212	250676 176 4268 6789 26.8875 29.212694376409 6 0.2 0.7 2.5 1.25
vector 438181  Network.dyn_peer[90]  lookupHopsSig:vector  ETV
438181	236420 585 4358 108997 26.9875 74.258816561774 19 1 33 245 4175
vector 438180  Network.dyn_peer[90]  lookupTimeSig:vector  ETV
438180	235811 609 4358 108997 26.9875 74.258816561774 19 0.2 3.4 26.3 46.57
vector 438201  Network.dyn_peer[100]  lookupHopsSig:vector  ETV
438201	246226 351 4384 76280 27.0125 63.727290867052 12 1 20 99 1107
vector 438200  Network.dyn_peer[100]  lookupTimeSig:vector  ETV
438200	245857 369 4384 76280 27.0125 63.727290867052 12 0.2 2.1 11 13.02
vector 438195  Network.dyn_peer[97]  lookupHopsSig:vector  ETV
438195	243200 735 4395 127563 27.025 80.301489376092 24 2 24 232 3152
vector 438194  Network.dyn_peer[97]  lookupTimeSig:vector  ETV
438194	242435 765 4395 127563 27.025 80.301489376092 24 0.3 2.5 25.5 36.21
vector 438177  Network.dyn_peer[88]  lookupHopsSig:vector  ETV
438177	234711 370 4432 123439 27.0625 78.971361478777 12 3 19 127 1601
vector 438176  Network.dyn_peer[88]  lookupTimeSig:vector  ETV
438176	234328 383 4432 123439 27.0625 78.971361478777 12 0.4 2 13.8 18.36
vector 438217  Network.dyn_peer[108]  lookupHopsSig:vector  ETV
438217	252700 792 4477 94443 27.1125 69.598883321514 26 2 29 231 3385
vector 438216  Network.dyn_peer[108]  lookupTimeSig:vector  ETV
438216	251873 827 4477 94443 27.1125 69.598883321514 26 0.3 3 25.6 38.66
vector 438221  Network.dyn_peer[110]  lookupHopsSig:vector  ETV
438221	255264 257 4612 94576 27.2375 69.639016225378 9 1 13 52 402
vector 438220  Network.dyn_peer[110]  lookupTimeSig:vector  ETV
438220	254992 272 4612 94576 27.2375 69.639016225378 9 0.2 1.4 6 5.08
vector 438231  Network.dyn_peer[115]  lookupHopsSig:vector  ETV
438231	258971 131 4714 7855 27.35 30.069497106942 5 1 10 24 166
vector 438230  Network.dyn_peer[115]  lookupTimeSig:vector  ETV
438230	258831 140 4714 7855 27.35 30.069497106942 5 0.1 1.1 2.8 2.16
vector 438227  Network.dyn_peer[113]  lookupHopsSig:vector  ETV
438227	257039 855 4790 103932 27.425 72.620848565075 28 1 21 240 2842
vector 438226  Network.dyn_peer[113]  lookupTimeSig:vector  ETV
438226	256142 897 4790 103932 27.425 72.620848565075 28 0.2 2.2 26.7 33.43
vector 438225  Network.dyn_peer[112]  lookupHopsSig:vector  ETV
438225	255969 173 4928 139514 27.5625 84.033456309307 6 3 24 66 1040
vector 438224  Network.dyn_peer[112]  lookupTimeSig:vector  ETV
438224	255787 182 4928 139514 27.5625 84.033456309307 6 0.4 2.5 7.1 11.67
vector 438207  Network.dyn_peer[103]  lookupHopsSig:vector  ETV
438207	248632 388 4967 111499 27.6 75.074078627222 13 1 32 187 3529
vector 438206  Network.dyn_peer[103]  lookupTimeSig:vector  ETV
438206	248228 404 4967 111499 27.6 75.074078627222 13 0.2 3.3 19.9 38.93