file 254436 1369149732                                          
version 2
run Join-56-20130429-12:51:12-17679
attr configname Join
attr datetime 20130429-12:51:12
attr experiment "\"Join\""
attr inifile omnetpp.ini
attr iterationvars $0=1024
attr iterationvars2 "$0=1024, $repetition=6"
attr measurement $0=1024
attr network Network
attr processid 17679
attr repetition 6
attr replication #6
attr resultdir results
attr runnumber 56
attr seedset 56
vector 56  Network.dyn_peer[0]  lookupHopsSig:vector  ETV
56	444 253992 3062 194945 20 17021.441585059342 9071 0 59 131508 2413788
