version 2
run Join-5-20130429-12:49:19-17679
attr configname Join
attr datetime 20130429-12:49:19
attr experiment "\"Join\""
attr inifile omnetpp.ini
attr iterationvars $0=32
attr iterationvars2 "$0=32, $repetition=5"
attr measurement $0=32
attr network Network
attr processid 17679
attr repetition 5
attr replication #5
attr resultdir results
attr runnumber 5
attr seedset 5

vector 5  Network.dyn_peer[0]  lookupHopsSig:vector  ETV
5	300	22.2	2
5	303	22.4	1
5	307	22.603610484164	1
5	313	23.007852541261	3
5	317	23.208207631601	1
5	322	23.513871145354	2
5	328	23.91933472889	3
5	347	26.1	1
5	352	26.5	3
5	358	26.908358141665	3
5	364	27.310244818973	3
5	369	27.618695371279	2
5	389	30.2	2
5	394	30.6	3
5	399	30.907950874734	2
5	404	31.209718099179	2
5	424	34.2	2
5	429	34.6	3
5	434	34.904934150537	2
5	443	35.607200002374	6
5	451	36.013034999791	3
5	457	36.421941882384	3
5	463	36.831334875885	3
5	469	37.150096224043	2
5	475	37.550947274332	3
5	481	37.952064198568	3
5	501	40.4	4
5	506	40.8	3
5	511	41.103527231407	2
5	515	41.304535504143	1
5	520	41.609376107101	2
5	525	41.913210197727	2
5	537	42.72063149878	7
5	556	46.1	1
5	560	46.4	2
5	566	46.803715126207	3
5	573	47.305241757375	4
5	577	47.505365451481	1
5	582	47.808582419978	2
5	589	48.117179488911	2
5	594	48.418354567283	2
5	615	52.3	3
5	621	52.8	4
5	626	53.108499800309	2
5	633	53.616422213509	4
5	641	54.021569593164	3
5	662	58.3	3
5	667	58.7	3
5	672	59.005107135204	2
5	676	59.205311048998	1
5	681	59.510172038586	2
5	687	59.915898225088	3
5	694	60.216432352316	2
5	717	64.5	5
5	722	64.9	3
5	726	65.108014015292	1
5	730	65.314288982741	1
5	737	65.814828603718	4
5	744	66.122308859164	2
5	748	66.324213636894	1
5	754	66.734090599745	3
5	759	67.038614788184	2
5	782	70.5	5
5	787	70.9	3
5	793	71.302172828877	3
5	799	71.705772660848	3
5	806	72.011513395636	2
5	810	72.220728101267	1
5	814	72.428547250069	1
5	818	72.638083555136	1
5	823	72.946385710275	2
5	827	73.150462567597	1
5	832	73.452873274293	2
5	837	73.761858985829	2
5	857	76.2	2
5	862	76.507598869979	2
5	866	76.712866045584	1
5	871	77.022201479725	2
5	875	77.228809923602	1
5	879	77.435969705803	1
5	898	80.1	1
5	903	80.5	3
5	910	80.913752430498	3
5	914	81.121343421647	1
5	935	84.3	3
5	940	84.7	3
5	945	85.002610361778	2
5	950	85.310283675556	2
5	955	85.616250985617	2
5	960	85.92599448039	2
5	967	86.229334631443	2
5	971	86.433071776588	1
5	976	86.73752681139	2
5	980	86.938357355802	1
5	1001	90.3	3
5	1005	90.6	2
5	1010	90.908441399934	2
5	1016	91.312077397897	3
5	1021	91.618360485673	2
5	1026	91.926463628	2
5	1033	92.228465472942	2
5	1038	92.529066434651	2
5	1044	92.932876070071	3
5	1053	93.637373505643	6
5	1074	96.3	3
5	1078	96.6	2
5	1083	96.902812589269	2
5	1088	97.203446599093	2
5	1093	97.510980944069	2
5	1097	97.713402020788	1
5	1104	98.02041762305	2
5	1120	102.1	1
5	1126	102.6	4
5	1130	102.801702500779	1
5	1135	103.105142216192	2
5	1140	103.407095662437	2
5	1144	103.615295675015	1
5	1149	103.832688552629	1
5	1167	106	0
5	1171	106.3	2
5	1176	106.609147343356	2
5	1184	107.217688793551	5
5	1189	107.518287009938	2
5	1195	107.919991493417	3
5	1201	108.129641459848	1
5	1206	108.435488632987	2
5	1211	108.741198385141	2
5	1231	112.2	2
5	1235	112.5	2
5	1241	112.900289708252	3
5	1246	113.206883881049	2
5	1254	113.808613499322	5
5	1261	114.11847851377	2
5	1267	114.33069459349	1
5	1271	114.536503778703	1
5	1293	118.4	4
5	1299	118.9	4
5	1306	119.409360434203	4
5	1312	119.81177902473	3
5	1321	120.319150885134	4
5	1326	120.619462185755	2
5	1330	120.82330732952	1
5	1335	121.128749652988	2
5	1353	124	0
5	1359	124.5	4
5	1364	124.808293646345	2
5	1369	125.112887102348	2
5	1373	125.313840241784	1
5	1378	125.618026782842	2
5	1399	128.3	3
5	1403	128.6	2
5	1407	128.802077791276	1
5	1413	129.211689902718	3
5	1419	129.61531449546	3
5	1427	130.023204596551	3
5	1433	130.432652184188	3
5	1439	130.837619139284	3
5	1445	131.245041518481	3
5	1465	134.3	3
5	1469	134.6	2
5	1473	134.807485758075	1
5	1479	135.212770018833	3
5	1483	135.420328657186	1
5	1505	138.4	4
5	1509	138.7	2
5	1515	139.10784508873	3
5	1520	139.412101462066	2
5	1530	140.020691903349	5
5	1536	140.424930399331	3
5	1540	140.631952593483	1
5	1545	140.935139057832	2
5	1565	144.2	2
5	1568	144.4	1
5	1574	144.807595770121	3
5	1578	145.013016674264	1
5	1586	145.417429328287	3
5	1592	145.818772965591	3
5	1599	146.121552504641	2
5	1604	146.42457136563	2
5	1610	146.826096095354	3
5	1615	147.127460896342	2
5	1619	147.32856008022	1
5	1642	150.6	6
5	1646	150.9	2
5	1650	151.106013411527	1
5	1655	151.41298513987	2
5	1660	151.722957394555	2
5	1664	151.927215548179	1
5	1671	152.232824694074	2
5	1679	152.651454931184	3
5	1698	156.1	1
5	1702	156.4	2
5	1707	156.607616241992	1
5	1712	156.913501242651	2
5	1718	157.319986622692	3
5	1722	157.526036665842	1
5	1731	158.029905213028	4
5	1750	162.1	1
5	1753	162.3	1
5	1757	162.506046033168	1
5	1761	162.707822646798	1
5	1766	163.010914954469	2
5	1770	163.216663527773	1
5	1775	163.519119837787	2
5	1782	163.925342183305	3
5	1802	166.2	2
5	1805	166.4	1
5	1810	166.70298825683	2
5	1814	166.904644675107	1
5	1820	167.310976295511	3
5	1825	167.611579959823	2
5	1834	168.115645756693	4
5	1839	168.418427316056	2
5	1844	168.723187785873	2
5	1849	169.026671105765	2
5	1871	172.4	4
5	1875	172.7	2
5	1881	173.104836150624	3
5	1887	173.511083695287	3
5	1896	174.012487556388	4
5	1900	174.214084365757	1
5	1907	174.714838797229	4
5	1913	175.123776423756	3
5	1918	175.430657317868	2
5	1939	178.3	3
5	1943	178.6	2
5	1949	179.006436402185	3
5	1955	179.415397210069	3
5	1976	182.3	3
5	1980	182.6	2
5	1986	183.006414647726	3
5	1992	183.41003529343	3
5	1998	183.819916971069	3
5	2005	184.120194102904	2
5	2010	184.427897396491	2
5	2015	184.737190697801	2
5	2019	184.939005509906	1
5	2024	185.145830262978	1
5	2030	185.554340147349	3
5	2051	188.3	3
5	2056	188.7	3
5	2062	189.107491846585	3
5	2068	189.516145502344	3
5	2074	189.923750817741	3
5	2081	190.228021569831	2
5	2085	190.42945032776	1
5	2093	191.039225837685	5
5	2098	191.347345279558	2
5	2118	194.2	2
5	2123	194.6	3
5	2130	194.910897508912	2
5	2135	195.113021997481	1
5	2156	198.3	3
5	2161	198.7	3
5	2167	199.107392507388	3
5	2172	199.407988739527	2
5	2177	199.713817847663	2
5	2184	200.01721651577	2
5	2189	200.324919115759	2
5	2194	200.63060014338	2
5	2199	200.936600075042	2
5	2219	204.3	3
5	2223	204.6	2
5	2228	204.90571212368	2
5	2232	205.110682227152	1
5	2254	208.4	4
5	2258	208.7	2
5	2263	209.009967983213	2
5	2269	209.412972941884	3
5	2273	209.622116690891	1
5	2281	210.030104553595	3
5	2285	210.239403777569	1
5	2290	210.540263275368	2
5	2294	210.741300757794	1
5	2298	210.943657394218	1
5	2317	214.2	2
5	2321	214.400307604423	1
5	2325	214.602337924285	1
5	2332	215.104064728583	4
5	2337	215.412480155967	2
5	2342	215.720757760973	2
5	2349	216.024482085466	2
5	2354	216.333805616219	2
5	2374	220.2	2
5	2377	220.4	1
5	2384	220.905753746663	4
5	2389	221.208683750565	2
5	2393	221.415020915317	1
5	2403	222.022802089243	5
5	2409	222.431691374706	3
5	2415	222.836556945642	3
5	2421	223.243696536245	3
5	2441	226.2	2
5	2444	226.4	1
5	2450	226.800871986788	3
5	2454	227.00636662138	1
5	2459	227.307936631947	2
5	2464	227.615011894172	2
5	2468	227.819602972951	1
5	2475	228.127659919035	2
5	2484	228.837337227048	6
5	2506	232.4	4
5	2511	232.8	3
5	2516	233.109385529309	2
5	2521	233.413624489812	2
5	2525	233.616206353653	1
5	2530	233.925145760906	2
5	2538	234.328070565477	3
5	2559	238.3	3
5	2563	238.6	2
5	2567	238.801883961802	1
5	2574	239.127274567145	2
5	2578	239.333551512395	1
5	2583	239.642430506366	2
5	2588	239.949959910496	2
5	2595	240.166134707172	1
5	2612	244.1	1
5	2617	244.5	3
5	2622	244.803501795826	2
5	2627	245.107143167508	2
5	2631	245.314914510479	1
5	2635	245.515477622813	1
5	2640	245.81725271333	2
5	2647	246.117560214816	2
5	2665	250.2	2
5	2672	250.413612356088	1
5	2680	250.822437444991	3
5	2684	251.02881918425	1
5	2705	254.3	3
5	2710	254.7	3
5	2717	255.208112159823	4
5	2722	255.509041091585	2
5	2726	255.713499016179	1
5	2731	255.920977544741	1
5	2752	258.3	3
5	2755	258.5	1
5	2761	258.80383718302	2
5	2766	259.110911277062	2
5	2770	259.311388660797	1
5	2774	259.516534605614	1
5	2793	262.1	1
5	2797	262.4	2
5	2801	262.608304376974	1
5	2807	263.012204815295	3
5	2813	263.313834468592	2
5	2834	266.3	3
5	2839	266.7	3
5	2845	267.104333878932	3
5	2852	267.605044561686	4
5	2857	267.914301079833	2
5	2864	268.217012800388	2
5	2869	268.526626481113	2
5	2874	268.836127424723	2
5	2895	272.3	3
5	2900	272.7	3
5	2904	272.905831126337	1
5	2911	273.407946063938	4
5	2917	273.811434339684	3
5	2924	274.113509738881	2
5	2928	274.317270059066	1
5	2933	274.618254429746	2
5	2938	274.921812645517	2
5	2944	275.327065432263	3
5	2949	275.629375761012	2
5	2971	278.4	4
5	2974	278.6	1
5	2980	279.002122678137	3
5	2986	279.412107835765	3
5	2991	279.619033198776	1
5	2999	280.026565330608	3
5	3004	280.335156312731	2
5	3010	280.743239210901	3
5	3015	281.048682260267	2
5	3035	284.2	2
5	3040	284.500078758068	2
5	3046	284.81062325029	2
5	3052	285.115147592406	2
5	3074	288.4	4
5	3077	288.6	1
5	3083	289.00970605706	3
5	3087	289.218233777197	1
5	3093	289.622930442044	3
5	3102	290.128191915138	4
5	3106	290.331043725786	1
5	3111	290.636193777114	2
5	3131	294.2	2
5	3137	294.515170968563	2
5	3145	294.932728222762	3
5	3151	295.342484794647	3
5	3155	295.54689739758	1
5	3177	298.4	4
5	3180	298.6	1
5	3186	299.008970105058	3
5	3194	299.520770674076	4
5	3200	299.928440405445	3
5	3207	300.231428128832	2
5	3226	304.1	1
5	3229	304.3	1
5	3234	304.514305198329	1
5	3238	304.715279060775	1
5	3243	305.020345858778	2
5	3249	305.333184733232	2
5	3253	305.542046076168	1
5	3260	305.94911134098	3
5	3281	308.3	3
5	3286	308.7	3
5	3292	309.109943259195	3
5	3296	309.311908937457	1
5	3301	309.617037836962	2
5	3306	309.924683863466	2
5	3314	310.330002112133	3
5	3319	310.636575574707	2
5	3324	310.945528911263	2
5	3329	311.255283503438	2
5	3335	311.655994205031	3
5	3339	311.859877136543	1
5	3345	312.063321642112	1
5	3350	312.370889142088	2
5	3356	312.772457977761	3
5	3360	312.980897513986	1
5	3381	316.3	3
5	3385	316.6	2
5	3390	316.90529130056	2
5	3395	317.208973724606	2
5	3399	317.414237101854	1
5	3405	317.820765400669	3
5	3412	318.123980409698	2
5	3418	318.431420879335	2
5	3438	322.2	2
5	3442	322.5	2
5	3447	322.807640346586	2
5	3452	323.117023231942	2
5	3458	323.520233669253	3
5	3464	323.928559753331	3
5	3473	324.433602977436	4
5	3493	328.2	2
5	3500	328.8	5
5	3506	329.206378826645	3
5	3512	329.612620711712	3
5	3516	329.822472143791	1
5	3536	332.2	2
5	3539	332.4	1
5	3544	332.700614140208	2
5	3551	333.204935959123	4
5	3555	333.410133624064	1
5	3560	333.711839343415	2
5	3567	334.016330884805	2
5	3588	338.3	3
5	3592	338.6	2
5	3597	338.905158434687	2
5	3601	339.108565071853	1
5	3623	342.4	4
5	3628	342.8	3
5	3634	343.208473373304	3
5	3640	343.616560913943	3
5	3645	343.922289132766	2
5	3651	344.131245128406	1
5	3656	344.43284422881	2
5	3662	344.841994562002	3
5	3668	345.247793059351	3
5	3680	346.052008615554	7
5	3700	350.2	2
5	3703	350.4	1
5	3708	350.706548308522	2
5	3712	350.916514419483	1
5	3716	351.121818522077	1
5	3721	351.423061150528	2
5	3725	351.623145095025	1
5	3729	351.830713410606	1
5	3737	352.233691797643	3
5	3757	356.2	2
5	3761	356.5	2
5	3765	356.707582155952	1
5	3772	357.120328139847	3
5	3777	357.428411970225	2
5	3799	360.4	4
5	3805	360.803806770555	3
5	3810	361.111163485885	2
5	3814	361.31711633718	1
5	3834	364.2	2
5	3840	364.7	4
5	3845	365.002910736727	2
5	3852	365.50877096774	4
5	3856	365.710763576025	1
5	3860	365.915198623234	1
5	3869	366.415945302311	4
5	3876	366.822614235644	3
5	3895	370.3	3
5	3900	370.7	3
5	3906	371.106561496893	3
5	3911	371.415077866471	2
5	3916	371.717153289917	2
5	3937	374.3	3
5	3941	374.6	2
5	3945	374.805724626949	1
5	3949	375.014776989989	1
5	3953	375.221299879773	1
5	3960	375.726310425997	4
5	3967	376.028413566712	2
5	3972	376.335137649483	2
5	3977	376.553609999587	1
5	3981	376.76112260544	1
5	3988	377.261706462982	4
5	4009	380.3	3
5	4015	380.8	4
5	4019	381.005649211106	1
5	4023	381.20611486735	1
5	4029	381.608317922339	3
5	4035	381.920302182157	2
5	4058	384.5	5
5	4064	385	4
5	4070	385.401130378225	3
5	4077	385.90302117959	4
5	4083	386.112439628949	1
5	4089	386.517857795879	3
5	4108	390.1	1
5	4114	390.6	4
5	4118	390.806878467567	1
5	4123	391.11508188608	2
5	4129	391.52325273441	3
5	4138	392.024764616657	4
5	4143	392.327033689767	2
5	4163	396.2	2
5	4168	396.6	3
5	4173	396.908945192687	2
5	4178	397.21742112215	2
5	4184	397.625825425331	3
5	4188	397.835096639399	1
5	4209	400.3	3
5	4214	400.7	3
5	4218	400.901812165118	1
5	4223	401.206270851943	2
5	4229	401.608311695473	3
5	4233	401.817092798284	1
5	4242	402.226853571063	3
5	4262	406.2	2
5	4265	406.4	1
5	4273	407.001053875847	5
5	4277	407.209767384656	1
5	4282	407.514460883381	2
5	4286	407.716121481164	1
5	4293	408.019739369303	2
5	4298	408.322524681254	2
5	4304	408.728064034196	3
5	4324	412.4	4
5	4330	412.9	4
5	4336	413.300816281652	3
5	4341	413.602260073672	2
5	4346	413.905626658112	2
5	4367	416.3	3
5	4373	416.8	4
5	4377	417.000747249829	1
5	4382	417.306523834915	2
5	4389	417.807201700889	4
5	4407	420	0
5	4412	420.4	3
5	4420	421.00606602888	5
5	4425	421.31029141689	2
5	4431	421.713760585715	3
5	4435	421.921072737406	1
5	4443	422.323188006357	3
5	4448	422.625845755746	2
5	4452	422.835597256012	1
5	4457	423.138746520981	2
5	4462	423.447136343109	2
5	4466	423.64840455222	1
5	4471	423.952891645276	2
5	4490	426.2	2
5	4494	426.5	2
5	4501	427.009756594682	4
5	4506	427.317037293116	2
5	4527	430.3	3
5	4533	430.8	4
5	4539	431.208748442069	3
5	4545	431.615008632756	3
5	4550	431.919638862848	2
5	4556	432.127167922754	1
5	4561	432.436033364871	2
5	4581	436.2	2
5	4584	436.4	1
5	4588	436.607740671513	1
5	4593	436.908849420952	2
5	4597	437.109364000285	1
5	4603	437.515944496326	3
5	4608	437.82001066956	2
5	4630	440.4	4
5	4633	440.6	1
5	4638	440.909736937389	2
5	4643	441.211630914427	2
5	4648	441.513648306726	2
5	4653	441.822047314998	2
5	4663	442.231196023336	3
5	4668	442.533642785531	2
5	4686	446.2	2
5	4691	446.6	3
5	4698	447.108633456975	4
5	4704	447.509545073883	3
5	4713	448.009743971921	4
5	4718	448.313322147646	2
5	4723	448.620842984046	2
5	4727	448.828349993885	1
5	4748	452.3	3
5	4752	452.6	2
5	4757	452.902552489389	2
5	4761	453.106116733755	1
5	4767	453.513930073142	3
5	4772	453.813970290994	2
5	4780	454.126677566422	2
5	4785	454.435640206876	2
5	4789	454.639591125167	1
5	4795	454.953460648956	2
5	4801	455.265566094896	2
5	4805	455.473617672667	1
5	4810	455.781411351669	2
5	4814	455.987262214937	1
5	4823	456.493850666787	4
5	4842	460.1	1
5	4846	460.4	2
5	4850	460.600149621539	1
5	4855	460.807461824573	1
5	4862	461.307514701096	4
5	4882	464.2	2
5	4885	464.4	1
5	4891	464.805077071227	3
5	4899	465.314003512002	4
5	4904	465.526194305646	1
5	4910	465.933585414728	3
5	4919	466.438705404337	4
5	4923	466.643983397885	1
5	4943	470.2	2
5	4951	470.9	6
5	4958	471.409515932209	4
5	4964	471.819000193129	3
5	4971	472.120409080159	2
5	4977	472.522953394701	3
5	4997	476.2	2
5	5002	476.6	3
5	5007	476.909564643274	2
5	5014	477.411648476403	4
5	5019	477.721220980244	2
5	5026	478.025322457278	2
5	5031	478.330504770887	2
5	5035	478.536344082046	1
5	5040	478.844023321494	2
5	5044	479.05291331502	1
5	5063	482.2	2
5	5068	482.6	3
5	5073	482.900552662736	2
5	5078	483.208624277554	2
5	5085	483.718158917149	4
5	5094	484.223450070746	4
5	5101	484.727599191806	4
5	5106	485.028549962414	2
5	5113	485.533834673706	4
5	5123	486.138192060214	5
5	5146	490.5	5
5	5152	491	4
5	5156	491.205600440429	1
5	5161	491.512378975619	2
5	5170	492.021940961366	4
5	5176	492.42196200991	3
5	5197	496.3	3
5	5201	496.6	2
5	5207	497.003181955323	3
5	5212	497.305311993963	2
5	5218	497.709082773948	3
5	5239	500.3	3
5	5244	500.7	3
5	5249	501.007664892876	2
5	5253	501.217419489477	1
5	5257	501.426777459065	1
5	5263	501.830027513048	3
5	5272	502.237149911464	3
5	5291	506.1	1
5	5297	506.6	4
5	5304	506.909959997529	2
5	5311	507.13152497919	1
5	5316	507.435930595979	2
5	5321	507.639684455751	1
5	5326	507.941261545214	2
5	5333	508.247800434391	2
5	5354	512.3	3
5	5358	512.6	2
5	5362	512.803545788971	1
5	5366	513.004572424364	1
5	5370	513.208228401974	1
5	5391	516.3	3
5	5396	516.7	3
5	5401	517.003880382466	2
5	5406	517.311356483699	2
5	5411	517.619650762082	2
5	5418	517.935905241237	2
5	5426	518.246001483203	2
5	5434	518.855944594497	5
5	5438	519.061395238889	1
5	5444	519.47074939727	3
5	5467	522.5	5
5	5472	522.9	3
5	5476	523.104319722587	1
5	5481	523.410464798568	2
5	5485	523.616387296972	1
5	5493	524.023585323252	3
5	5500	524.530751747179	4
5	5507	525.040619480886	4
5	5513	525.446302366893	3
5	5521	525.955620331345	4
5	5531	526.565490941151	5
5	5549	530	0
5	5555	530.5	4
5	5559	530.709505511836	1
5	5565	531.114072505398	3
5	5570	531.423125771455	2
5	5574	531.62470136564	1
5	5582	532.029617268687	3
5	5586	532.236021465751	1
5	5591	532.545376726573	2
5	5612	536.3	3
5	5616	536.6	2
5	5620	536.801086145383	1
5	5627	537.30871433254	4
5	5632	537.609627017908	2
5	5636	537.8096438056	1
5	5644	538.215132162489	3
5	5664	542.2	2
5	5667	542.4	1
5	5673	542.703534744335	2
5	5678	543.005282319239	2
5	5682	543.208576208471	1
5	5686	543.414094612758	1
5	5693	543.915985637699	4
5	5699	544.122381924782	1
5	5707	544.726193939335	5
5	5728	548.3	3
5	5732	548.6	2
5	5736	548.803181689123	1
5	5740	549.012761109284	1
5	5744	549.216420819099	1
5	5748	549.424176340606	1
5	5752	549.625506301808	1
5	5772	552.2	2
5	5777	552.6	3
5	5784	553.106512691564	4
5	5789	553.414776743339	2
5	5795	553.819070353482	3
5	5803	554.223805871284	3
5	5822	558.1	1
5	5827	558.5	3
5	5832	558.806484105987	2
5	5837	559.114198685183	2
5	5844	559.615868818898	4
5	5849	559.923658954199	2
5	5856	560.231083925648	2
5	5862	560.631230363626	3
5	5879	564.1	1
5	5882	564.3	1
5	5888	564.704508638451	3
5	5894	565.112057384538	3
5	5898	565.317151262742	1
5	5903	565.621400562939	2
5	5909	565.926650040831	2
5	5930	568.3	3
5	5934	568.6	2
5	5941	569.108125357544	4
5	5946	569.417729206571	2
5	5950	569.625110946895	1
5	5971	572.3	3
5	5975	572.6	2
5	5981	573.006260066009	3
5	5985	573.206307097214	1
5	5989	573.409824893247	1
5	5993	573.610886412046	1
5	6002	574.117877621089	4
5	6006	574.326852021603	1
5	6011	574.631456880005	2
5	6016	574.937296986127	2
5	6022	575.34464333142	3
5	6041	578.1	1
5	6046	578.5	3
5	6053	578.813047129338	2
5	6061	579.319159035193	4
5	6067	579.526050077656	1
5	6072	579.835487025613	2
5	6080	580.14531143065	2
5	6084	580.347056717769	1
5	6106	584.4	4
5	6112	584.9	4
5	6119	585.404891011156	4
5	6124	585.707261115587	2
5	6133	586.208436698119	4
5	6138	586.515436702186	2
5	6143	586.818820123697	2
5	6147	587.022988183702	1
5	6152	587.327514670457	2
5	6157	587.636495306771	2
5	6162	587.938797445115	2
5	6169	588.241776296356	2
5	6175	588.651068755385	3
5	6196	592.3	3
5	6199	592.5	1
5	6205	592.909485777283	3
5	6209	593.110190554579	1
5	6213	593.312968232847	1
5	6218	593.622399193049	2
5	6226	594.029161578314	3
5	6246	598.2	2
5	6250	598.5	2
5	6255	598.803422854479	2
5	6259	599.009621637555	1
5	6264	599.318211621577	2
5	6283	602.1	1
5	6289	602.504561005649	3
5	6294	602.81418827308	2
5	6300	603.21869399326	3
5	6307	603.621322659897	3
5	6327	606.2	2
5	6330	606.4	1
5	6336	606.804853955565	3
5	6341	607.114149288665	2
5	6359	610	0
5	6364	610.4	3
5	6369	610.700132753837	2
5	6374	611.006279703143	2
5	6380	611.415601517175	3
5	6385	611.717729638378	2
5	6405	614.2	2
5	6410	614.6	3
5	6415	614.907455818725	2
5	6422	615.417185772303	4
5	6429	615.920557342874	4
5	6436	616.228494320359	2
5	6440	616.434063751512	1
5	6445	616.636646129896	1
5	6466	620.3	3
5	6470	620.6	2
5	6475	620.902704180974	2
5	6482	621.314232080167	3
5	6488	621.716335789377	3
5	6492	621.91959226231	1
5	6500	622.321589178861	3
5	6506	622.726683651419	3
5	6510	622.926714158824	1
5	6517	623.429606659987	4
5	6523	623.829884377719	3
5	6532	624.333981201964	4
5	6552	628.2	2
5	6559	628.8	5
5	6563	629.006752310625	1
5	6567	629.207541755988	1
5	6587	632.2	2
5	6591	632.5	2
5	6596	632.800742350071	2
5	6601	633.004117531249	1
5	6606	633.218555597435	1
5	6614	633.82220688584	5
5	6621	634.122831882375	2
5	6625	634.322876616659	1
5	6629	634.522939902961	1
5	6649	638.2	2
5	6655	638.7	4
5	6661	639.107428193041	3
5	6666	639.408400465182	2
5	6672	639.814851903775	3
5	6679	640.12430115532	2
5	6686	640.632557596865	4
5	6705	644.1	1
5	6712	644.7	5
5	6718	645.107152932314	3
5	6723	645.409849466371	2
5	6727	645.619757375548	1
5	6736	646.124723826284	4
5	6740	646.328689412917	1
5	6746	646.736983211536	3
5	6751	647.042401539999	2
5	6756	647.347840024297	2
5	6762	647.75437259964	3
5	6771	648.25677102023	4
5	6775	648.458400664464	1
5	6796	652.3	3
5	6799	652.5	1
5	6803	652.705289953018	1
5	6810	653.210613837535	4
5	6815	653.514071548131	2
5	6819	653.715264852826	1
5	6828	654.125506129964	3
5	6847	658.1	1
5	6852	658.5	3
5	6858	658.903638769418	3
5	6862	659.10779744862	1
5	6867	659.41296474343	2
5	6871	659.62211488812	1
5	6877	659.934174244205	2
5	6884	660.143221348979	1
5	6888	660.344986695243	1
5	6893	660.55747661541	1
5	6900	661.057576182196	4
5	6923	664.5	5
5	6929	665	4
5	6934	665.301566020837	2
5	6938	665.502939296003	1
5	6943	665.805536611966	2
5	6950	666.013788602194	1
5	6971	670.3	3
5	6976	670.7	3
5	6981	671.002086349383	2
5	6986	671.304966828452	2
5	6992	671.712614416127	3
5	7000	672.117371477774	3
5	7004	672.324808852107	1
5	7009	672.625233716939	2
5	7013	672.833414716592	1
5	7018	673.141175077247	2
5	7022	673.345189023091	1
5	7027	673.652336632095	2
5	7031	673.861955718819	1
5	7055	676.6	6
5	7060	677	3
5	7065	677.300745083626	2
5	7071	677.704440582431	3
5	7079	678.109680378678	3
5	7084	678.419300692308	2
5	7089	678.725308763471	2
5	7093	678.927443567561	1
5	7097	679.133637392332	1
5	7102	679.43449987055	2
5	7106	679.643476345906	1
5	7111	679.947326068511	2
5	7129	682.2	2
5	7132	682.4	1
5	7139	682.904379940023	4
5	7145	683.308503439544	3
5	7150	683.61467547023	2
5	7155	683.921507954234	2
5	7173	686	0
5	7176	686.2	1
5	7180	686.405176172123	1
5	7186	686.813120066792	3
5	7192	687.2170164031	3
5	7199	687.726917457813	4
5	7207	688.13438188136	3
5	7214	688.637766477897	4
5	7234	692.2	2
5	7237	692.4	1
5	7241	692.600183606841	1
5	7246	692.909509120173	2
5	7250	693.114586734908	1
5	7254	693.322221125719	1
5	7258	693.524270599599	1
5	7264	693.925874653354	3
5	7270	694.135538143499	1
5	7274	694.345300504855	1
5	7296	698.4	4
5	7300	698.7	2
5	7305	699.005171031793	2
5	7311	699.406737898352	3
5	7330	702.1	1
5	7335	702.5	3
5	7340	702.801330731676	2
5	7344	703.002495681023	1
5	7364	706.2	2
5	7368	706.5	2
5	7375	707.006157124587	4
5	7381	707.406494038691	3
5	7386	707.710026408654	2
5	7407	710.3	3
5	7411	710.6	2
5	7416	710.906022873187	2
5	7421	711.113904483088	1
5	7425	711.314448461441	1
5	7430	711.522546692207	1
5	7436	711.834328913719	2
5	7455	714.1	1
5	7460	714.5	3
5	7466	714.905962766448	3
5	7472	715.315274332961	3
5	7478	715.72412064696	3
5	7485	716.027614715097	2
5	7491	716.428487718664	3
5	7495	716.629212305815	1
5	7500	716.93683636048	2
5	7505	717.241388816532	2
5	7511	717.646011806289	3
5	7516	717.951903192114	2
5	7522	718.161149680544	1
5	7541	722.2	2
5	7546	722.505197155328	2
5	7550	722.706506144843	1
5	7554	722.915391802835	1
5	7560	723.325282548904	3
5	7564	723.531611548641	1
5	7572	723.941160477902	3
5	7594	726.4	4
5	7597	726.6	1
5	7602	726.908379508787	2
5	7610	727.508858567021	5
5	7616	727.916923663493	3
5	7625	728.423089296489	4
5	7630	728.729805951967	2
5	7637	729.231828610928	4
5	7643	729.634817925075	3
5	7662	732.1	1
5	7665	732.3	1
5	7672	732.803254283505	4
5	7677	733.109952592015	2
5	7682	733.419681329565	2
5	7703	736.3	3
5	7708	736.7	3
5	7713	737.004423089001	2
5	7719	737.406852842736	3
5	7724	737.709703504595	2
5	7744	740.2	2
5	7749	740.6	3
5	7755	741.002112982792	3
5	7763	741.607034857049	5
5	7773	742.208979121189	5
5	7778	742.50924826361	2
5	7784	742.916026047549	3
5	7804	746.5	5
5	7809	746.9	3
5	7816	747.401757949588	4
5	7820	747.608470711968	1
5	7825	747.911577393486	2
5	7831	748.117016619317	1
5	7836	748.423972925125	2
5	7841	748.731421573192	2
5	7847	749.135271155044	3
5	7866	752.1	1
5	7870	752.4	2
5	7877	752.905465740317	4
5	7884	753.409811590611	4
5	7891	753.816826762979	3
5	7897	754.017708817495	1
5	7903	754.422123812973	3
5	7907	754.623262066296	1
5	7927	758.2	2
5	7933	758.7	4
5	7938	759.003872162715	2
5	7943	759.311637672569	2
5	7947	759.512145886659	1
5	7952	759.81625617407	2
5	7959	760.119087935164	2
5	7964	760.426902709539	2
5	7968	760.626986383202	1
5	7988	764.2	2
5	7992	764.401838170771	1
5	7997	764.711122668938	2
5	8002	765.017379493828	2
5	8007	765.322660036257	2
5	8015	765.929087906621	5
5	8037	768.4	4
5	8042	768.8	3
5	8046	769.002623800169	1
5	8052	769.411287268071	3
5	8058	769.817774526883	3
5	8070	770.432539084073	5
5	8090	774.2	2
5	8094	774.5	2
5	8101	775.00685042307	4
5	8108	775.514365881509	4
5	8114	775.923833861599	3
5	8122	776.326381341087	3
5	8127	776.629110255128	2
5	8135	777.134325681864	4
5	8156	780.3	3
5	8159	780.5	1
5	8164	780.803430155229	2
5	8170	781.20614836204	3
5	8178	781.809855565688	5
5	8186	782.210806220954	3
5	8195	782.82753155742	5
5	8200	783.137417931737	2
5	8219	786.1	1
5	8225	786.6	4
5	8230	786.906924072264	2
5	8238	787.512616097663	5
5	8243	787.815924345929	2
5	8249	788.022261513507	1
5	8255	788.331039513239	2
5	8277	792.4	4
5	8280	792.6	1
5	8285	792.909126270383	2
5	8291	793.312604289976	3
5	8296	793.618729819964	2
5	8301	793.921101460267	2
5	8321	796.2	2
5	8326	796.411784766704	1
5	8331	796.621355976634	1
5	8336	796.826240679224	1
5	8342	797.235045945831	3
5	8346	797.436419692489	1
5	8351	797.745786319316	2
5	8371	800.2	2
5	8375	800.5	2
5	8380	800.807128202582	2
5	8385	801.116235615939	2
5	8391	801.51700990535	3
5	8397	801.923613341116	3
5	8404	802.231336565774	2
5	8420	806.1	1
5	8426	806.6	4
5	8430	806.802169852836	1
5	8437	807.214746127614	3
5	8443	807.622100783017	3
5	8463	810.2	2
5	8468	810.6	3
5	8473	810.902326712592	2
5	8478	811.202942099419	2
5	8485	811.705652117178	4
5	8494	812.206243075119	4
5	8499	812.511677623976	2
5	8504	812.812602615431	2
5	8509	813.113067032301	2
5	8530	816.3	3
5	8534	816.6	2
5	8540	817.001912261713	3
5	8548	817.602884581971	5
5	8552	817.812159552201	1
5	8574	820.4	4
5	8578	820.7	2
5	8584	821.108781816104	3
5	8590	821.51714126021	3
5	8595	821.822408428183	2
5	8602	822.132242841897	2
5	8607	822.433701164326	2
5	8625	826.3	3
5	8629	826.6	2
5	8634	826.90040592462	2
5	8638	827.108200064603	1
5	8645	827.60825351381	4
5	8654	828.112354924415	4
5	8658	828.321785719775	1
5	8664	828.630017616478	2
5	8683	832.1	1
5	8687	832.4	2
5	8692	832.706073147794	2
5	8696	832.912348750787	1
5	8700	833.121284995222	1
5	8705	833.430822682721	2
5	8727	836.4	4
5	8731	836.7	2
5	8739	837.309448025738	5
5	8745	837.7170964964	3
5	8749	837.925169280216	1
5	8756	838.226907779111	2
5	8775	842.1	1
5	8780	842.5	3
5	8787	843.004249799728	4
5	8792	843.313858204923	2
5	8797	843.623394072725	2
5	8817	846.2	2
5	8823	846.7	4
5	8828	847.00160348531	2
5	8833	847.305947069305	2
5	8837	847.506781399862	1
5	8842	847.811569318384	2
5	8849	848.11370253964	2
5	8856	848.614305743103	4
5	8878	852.4	4
5	8883	852.8	3
5	8887	853.004100149061	1
5	8892	853.310996913771	2
5	8897	853.618598592507	2
5	8905	854.027438531738	3
5	8912	854.53651196674	4
5	8934	858.4	4
5	8939	858.8	3
5	8944	859.106885401639	2
5	8949	859.409497986067	2
5	8953	859.611111374012	1
5	8961	860.019908276548	3
5	8965	860.225226923335	1
5	8971	860.634662828054	3
5	8978	861.136679524176	4
5	8996	864.1	1
5	9001	864.5	3
5	9007	864.907856316801	3
5	9013	865.313400772008	3
5	9019	865.721025951433	3
5	9023	865.928506911152	1
5	9029	866.129724283108	1
5	9034	866.431245291548	2
5	9040	866.835847778325	3
5	9045	867.140306896988	2
5	9066	870.3	3
5	9072	870.8	4
5	9076	871.008618309523	1
5	9082	871.416031666469	3
5	9089	871.83164960698	3
5	9109	874.2	2
5	9112	874.4	1
5	9116	874.606991526831	1
5	9122	875.014824647614	3
5	9126	875.222009511626	1
5	9132	875.534504589866	2
5	9154	878.4	4
5	9157	878.6	1
5	9162	878.902724461425	2
5	9168	879.308828844712	3
5	9174	879.713772076915	3
5	9181	880.020715186476	2
5	9186	880.324775670116	2
5	9208	884.4	4
5	9212	884.7	2
5	9218	885.108804792014	3
5	9225	885.615424091165	4
5	9234	886.116390848177	4
5	9239	886.417896025242	2
5	9244	886.630928757204	1
5	9249	886.940861882389	2
5	9253	887.150360168564	1
5	9258	887.456922788837	2
5	9262	887.662247560064	1
5	9266	887.862545682885	1
5	9273	888.162994291092	2
5	9295	892.4	4
5	9300	892.8	3
5	9307	893.300103595275	4
5	9311	893.504907511088	1
5	9317	893.907032896419	3
5	9337	896.2	2
5	9342	896.6	3
5	9346	896.802140079892	1
5	9352	897.208243445187	3
5	9358	897.608279465517	3
5	9366	898.013869318907	3
5	9371	898.321819669588	2
5	9376	898.622600413323	2
5	9380	898.824083534462	1
5	9400	902.2	2
5	9404	902.5	2
5	9410	902.81577565004	2
5	9416	903.117609586024	2
5	9420	903.327447954332	1
5	9444	906.6	6
5	9449	906.908967370672	2
5	9455	907.313019851049	3
5	9459	907.518900506213	1
5	9468	908.020130296811	4
5	9473	908.328058541757	2
5	9479	908.73754613334	3
5	9499	912.2	2
5	9503	912.5	2
5	9510	912.908834047983	3
5	9515	913.218117407222	2
5	9519	913.422296645642	1
5	9524	913.729211393728	2
5	9528	913.934899284614	1
5	9535	914.242823895903	2
5	9539	914.450364994867	1
5	9543	914.655429252953	1
5	9548	914.955933635913	2
5	9570	918.4	4
5	9576	918.9	4
5	9582	919.301410200051	3
5	9589	919.802250534885	4
5	9596	920.102658592006	2
5	9600	920.30797057677	1
5	9622	924.4	4
5	9628	924.805868003473	3
5	9633	925.110116015784	2
5	9638	925.415106155422	2
5	9643	925.722122890161	2
5	9647	925.930268665199	1
5	9653	926.134128832342	1
5	9657	926.337824902799	1
5	9676	930.3	3
5	9679	930.5	1
5	9685	930.900738147823	3
5	9690	931.110866015841	1
5	9710	934.2	2
5	9714	934.5	2
5	9720	934.904205862891	3
5	9724	935.104830815959	1
5	9728	935.307137642385	1
5	9732	935.510548805136	1
5	9738	935.911971189007	3
5	9746	936.31716934513	3
5	9752	936.724478285467	3
5	9758	937.130382135771	3
5	9778	940.3	3
5	9782	940.6	2
5	9787	940.903946774234	2
5	9792	941.210651871389	2
5	9797	941.515390623355	2
5	9801	941.722324129518	1
5	9810	942.229514154764	4
5	9830	946.2	2
5	9834	946.5	2
5	9840	946.904441238981	3
5	9846	947.306837127878	3