version 2
run Join-54-20130429-12:51:05-17679
attr configname Join
attr datetime 20130429-12:51:05
attr experiment "\"Join\""
attr inifile omnetpp.ini
attr iterationvars $0=1024
attr iterationvars2 "$0=1024, $repetition=4"
attr measurement $0=1024
attr network Network
attr processid 17679
attr repetition 4
attr replication #4
attr resultdir results
attr runnumber 54
attr seedset 54

vector 54  Network.dyn_peer[0]  lookupHopsSig:vector  ETV
54	3093	20.803269403974	18
54	3112	22.306701821919	14
54	3125	23.407724013583	10
54	3143	24.812282124893	13
54	3169	27.018460234517	21
54	3190	28.728377921978	16
54	3225	31.836551224618	30
54	3244	33.338132692923	14
54	3252	33.946695867444	5
54	3295	38.3	23
54	3317	40.2	18
54	3354	43.504604038835	32
54	3375	45.214418068678	16
54	3389	46.21901433789	9
54	3405	47.625512308176	13
54	3430	49.727714135351	20
54	3457	52.9	9
54	3467	53.8	8
54	3476	54.301431699804	4
54	3486	55.103173820545	7
54	3499	56.012894664705	8
54	3515	57.417321672742	13
54	3526	58.12560250058	6
54	3552	60.333742251616	21
54	3565	61.435149533339	10
54	3580	62.53594545854	10
54	3588	63.145799258856	5
54	3619	65.854144006505	26
54	3644	68.7	7
54	3692	73	42
54	3717	75.109376050794	20
54	3732	76.21806679373	10
54	3749	77.719436649543	14
54	3771	80.4	4
54	3790	82	15
54	3821	84.709798831518	26
54	3833	85.715891334069	9
54	3867	88.522683027839	27
54	3879	89.532372300669	9
54	3900	91.23739857072	16
54	3948	96.8	28
54	3969	98.6	17
54	3976	99.106438201207	4
54	4001	101.212040965668	20
54	4026	103.314355659677	20
54	4042	104.520437109925	11
54	4067	106.628857355951	20
54	4078	107.537899847365	8
54	4116	110.744517093784	31
54	4141	114.7	7
54	4159	116.2	14
54	4187	118.604218061994	23
54	4198	119.50823509757	8
54	4273	124.2	22
54	4289	125.7	14
54	4303	126.70945605139	9
54	4329	128.911708197113	21
54	4335	129.319361822997	3
54	4354	130.823459175127	14
54	4379	132.931205049141	20
54	4386	133.439945017758	4
54	4391	133.740438272428	2
54	4399	134.145377482963	3
54	4411	135.154273757608	9
54	4421	135.962739838973	7
54	4437	137.166776344917	11
54	4465	141.1	11
54	4479	142.2	10
54	4486	142.708418741084	4
54	4506	144.314151201844	15
54	4536	146.917593603976	25
54	4564	151	10
54	4591	153.4	23
54	4611	155.007885562768	15
54	4650	158.308633477608	32
54	4660	159.115757343267	7
54	4680	160.723700137656	15
54	4689	161.423791069712	6
54	4699	162.033628909799	5
54	4716	163.537858537197	14
54	4782	168.3	23
54	4791	169.1	7
54	4806	170.205041516681	10
54	4818	171.214732195103	9
54	4844	173.418160014782	21
54	4855	174.119803098322	6
54	4864	174.823079477672	6
54	4873	175.532398921642	6
54	4888	176.641983237152	10
54	4900	177.647816022075	9
54	4911	178.349234852159	6
54	4946	183.9	19
54	4968	185.8	18
54	4988	187.406443793012	15
54	5009	189.112369215255	16
54	5060	195.1	31
54	5076	196.4	12
54	5090	197.601929432384	11
54	5107	198.906902811305	12
54	5131	200.908514186452	19
54	5153	202.70947575378	17
54	5176	204.617849066187	18
54	5190	205.82655553473	11
54	5221	209.5	15
54	5242	211.3	17
54	5258	212.505592278237	11
54	5272	213.708404844386	11
54	5287	214.810746164495	10
54	5300	215.918290873564	10
54	5338	219.125945941301	31
54	5369	223.6	16
54	5382	224.6	9
54	5396	225.809925126594	11
54	5407	226.510540721295	6
54	5415	227.111602361243	5
54	5423	227.714462382771	5
54	5436	228.621041967972	8
54	5447	229.528754542601	8
54	5481	233.8	18
54	5517	236.9	30
54	5545	239.302948450609	23
54	5568	241.212532329736	18
54	5588	242.819798746669	15
54	5606	244.226303400952	13
54	5641	249.7	17
54	5670	252.1	23
54	5695	254.207383380292	20
54	5712	255.713090659742	14
54	5724	256.51432386983	7
54	5751	258.818900702447	22
54	5773	260.628081959309	17
54	5795	262.430915169613	17
54	5823	264.83472543582	23
54	5841	266.240348157732	13
54	5857	267.647570479894	13
54	5865	268.051040237294	3
54	5886	269.958836689546	18
54	5918	272.563978212078	25
54	5945	274.870345053614	22
54	5967	278.5	5
54	5986	280.1	15
54	6017	282.806302299539	26
54	6029	283.81439578813	9
54	6049	285.421531606914	15
54	6077	287.829645337137	23
54	6109	290.437853804103	25
54	6172	295	10
54	6229	297.6	25
54	6254	299.405723246659	17
54	6270	300.614487214674	11
54	6289	302.118446818961	14
54	6304	303.422152569855	12
54	6309	303.72845414991	2
54	6340	306.234611913126	24
54	6389	312.9	29
54	6407	314.4	14
54	6422	315.700575375976	12
54	6438	316.910205869597	11
54	6454	318.11984187513	11
54	6472	319.725535636098	15
54	6484	320.526413247574	7
54	6513	323.02747811747	24
54	6532	324.528654976894	14
54	6570	327.938188046421	33
54	6594	329.942920986252	19
54	6620	332.8	8
54	6632	333.9	10
54	6646	334.9090106355	9
54	6661	336.014710102597	10
54	6687	338.218505226547	21
54	6691	338.425724276011	1
54	6696	338.728923181465	2
54	6706	339.530587611829	7
54	6751	343.43476663937	38
54	6779	345.841822362774	23
54	6791	346.64755121583	7
54	6836	350.549062734754	38
54	6889	357.3	33
54	6896	357.9	5
54	6907	358.609501930302	6
54	6932	360.71249285366	20
54	6950	362.116701036021	13
54	6962	363.121659521621	9
54	7005	366.823982131182	36
54	7039	369.826131857006	29
54	7073	372.629002880732	27
54	7119	378.6	26
54	7125	379.1	4
54	7146	380.808866220817	16
54	7178	383.613024864745	27
54	7197	385.113334996526	14
54	7220	387.015897183157	18
54	7231	387.925816452947	8
54	7253	389.726048740932	17
54	7262	390.234501261383	4
54	7319	394.8	8
54	7342	395.8	9
54	7398	399.407224058855	35
54	7414	400.610070999021	11
54	7436	402.413742848558	17
54	7472	405.619640056921	31
54	7485	406.524110019311	8
54	7506	408.229397154645	16
54	7625	415.8	38
54	7662	417.4	15
54	7688	419.009797172124	15
54	7713	421.119337948413	20
54	7734	422.828868928259	16
54	7754	424.436356698498	15
54	7779	426.539155370097	20
54	7811	431.7	17
54	7814	431.9	1
54	7838	433.908699747761	19
54	7849	434.615661702108	6
54	7863	435.81656608549	11
54	7884	437.524977339206	16
54	7910	439.733379619531	21
54	7927	441.042980421487	12
54	7959	443.849063031881	27
54	7974	444.953796261034	10
54	8038	449.9	19
54	8059	451.7	17
54	8071	452.504379915262	7
54	8100	455.00478213811	24
54	8110	455.809856469295	7
54	8124	456.818292681047	9
54	8149	458.920976777107	20
54	8164	460.029716110667	10
54	8181	461.533177911664	14
54	8199	462.933205027307	13
54	8209	463.741042375614	7
54	8237	467.1	11
54	8264	469.5	23
54	8268	469.707353804183	1
54	8279	470.415080005928	6
54	8288	471.117399328985	6
54	8318	473.720794405132	25
54	8330	474.526423872502	7
54	8342	475.528562773447	9
54	8370	477.932636092619	23
54	8417	482.7	27
54	8427	483.6	8
54	8437	484.208957056291	5
54	8459	486.012797748061	17
54	8470	486.921498056544	8
54	8495	489.025510219615	20
54	8516	490.726422558212	16
54	8536	492.330379532321	15
54	8548	493.333655093222	9
54	8561	494.235455107524	8
54	8577	495.638049865386	13
54	8587	496.247962510387	5
54	8641	503.4	34
54	8673	506.1	26
54	8679	506.508133090953	3
54	8688	507.216905160678	6
54	8693	507.524859475094	2
54	8718	509.62652086614	20
54	8748	512.032040336237	23
54	8773	514.133355540246	20
54	8798	516.238064638622	20
54	8817	517.944331275745	16
54	8852	521.8	18
54	8884	524.5	26
54	8897	525.609488511488	10
54	8919	527.417432888573	17
54	8925	527.82334122694	3
54	8933	528.228117768172	3
54	8945	529.237232649178	9
54	8963	530.645892670599	13
54	8990	532.952396621051	22
54	9010	536.2	2
54	9018	536.9	6
54	9023	537.204283064615	2
54	9030	537.711839318763	4
54	9053	539.618680332993	18
54	9072	541.120400841956	14
54	9094	542.922989362655	17
54	9109	544.023221805593	10
54	9124	545.328301021669	12
54	9138	546.337961946167	9
54	9169	549.044659865701	26
54	9189	552.2	2
54	9213	554.3	20
54	9221	554.902571416913	5
54	9244	556.803992352589	18
54	9268	558.813534195484	19
54	9287	560.314385989827	14
54	9309	562.122159217036	17
54	9332	564.029419723119	18
54	9358	568.8	8
54	9382	570.9	20
54	9399	572.205924660132	12
54	9417	573.810466447013	15
54	9440	575.71599116399	18
54	9454	576.717712121091	9
54	9486	579.523401924033	27
54	9502	580.730438465523	11
54	9512	581.539728106053	7
54	9523	582.241615922939	6
54	9537	583.44847282203	11
54	9565	587	10
54	9593	589.5	24
54	9609	590.703055949273	11
54	9623	591.912465967697	11
54	9632	592.413863661522	4
54	9643	593.319353417442	8
54	9658	594.42043457481	10
54	9681	596.327122873958	18
54	9700	600.3	3
54	9711	601.3	9
54	9727	602.506681003964	11
54	9739	603.511935529627	9
54	9764	605.619027320895	20
54	9806	610.2	22
54	9820	611.5	12
54	9834	612.503416282644	9
54	9841	613.009380129266	4
54	9849	613.611759926897	5
54	9854	613.911780360263	2
54	9888	616.715500648926	27
54	9905	618.018399282375	12
54	9921	619.42365260465	13
54	9937	620.633120628981	11
54	9950	621.740132445002	10
54	9964	622.740900720111	9
54	10004	626.147364081232	33
54	10085	631.8	18
54	10098	632.3	4
54	10128	633.708282518696	13
54	10143	634.810546515208	10
54	10159	636.019250331331	11
54	10184	638.127267781333	20
54	10220	641.334142886837	31
54	10238	642.735750003134	13
54	10279	646.237065242264	34
54	10283	646.446981810136	1
54	10288	646.756279725462	2
54	10331	652.3	23
54	10338	652.9	5
54	10346	653.506213487605	5
54	10363	654.815523078115	12
54	10371	655.423603038843	5
54	10384	656.325740257053	8
54	10413	658.82776642981	24
54	10421	659.428381980268	5
54	10445	661.429456822287	19
54	10458	662.331467172658	8
54	10468	663.137967235772	7
54	10477	663.847089439618	6
54	10530	669.3	33
54	10544	670.4	10
54	10555	671.304983790523	8
54	10568	672.21174221696	8
54	10585	673.717084036976	14
54	10604	675.222471210189	14
54	10610	675.62818117627	3
54	10636	677.838088005551	21
54	10656	679.438330645889	15
54	10690	682.244760102864	27
54	10701	683.150846238379	8
54	10722	684.856861939256	16
54	10734	685.859597185627	9
54	10746	686.659749068599	7
54	10849	692.9	29
54	10876	694.1	11
54	10901	695.207509080288	10
54	10913	696.009003497262	7
54	10927	697.21679152315	11
54	10934	697.722231950533	4
54	10946	698.531474785121	7
54	10954	699.132392065251	5
54	10990	702.141565944667	29
54	10994	702.343719215319	1
54	11012	703.945189425345	15
54	11023	704.647281332603	6
54	11035	705.652254250438	9
54	11044	706.15985748886	4
54	11072	711	10
54	11095	713	19
54	11104	713.703341218999	6
54	11126	715.504682945243	17
54	11144	716.905529809758	13
54	11155	717.813751271679	8
54	11164	718.318925875278	4
54	11176	719.321482615374	9
54	11182	719.728600143595	3
54	11198	720.933980097207	11
54	11205	721.437661051903	4
54	11257	727.4	34
54	11278	729.2	17
54	11286	729.807071832756	5
54	11304	731.208571208431	13
54	11317	732.117831786356	8
54	11341	734.126667008464	19
54	11356	735.431956840847	12
54	11384	737.839832183418	23
54	11402	739.241920932349	13
54	11492	744.3	23
54	11501	744.7	3
54	11515	745.304520643649	5
54	11567	747.409600360679	20
54	11580	747.918383698038	4
54	11592	748.226924033992	2
54	11604	748.736520883248	4
54	11628	749.83695496242	10
54	11648	750.637890920506	7
54	11664	751.24561967869	5
54	11704	754.651744593381	33
54	11731	758.9	9
54	11752	760.7	17
54	11775	762.600850643042	18
54	11793	764.009561171668	13
54	11800	764.511907736341	4
54	11819	766.014948171957	14
54	11835	767.424267202783	13
54	11849	768.430063226925	9
54	11860	769.337064553526	8
54	11871	770.041171315683	6
54	11917	776.7	27
54	11926	777.5	7
54	11936	778.105482596245	5
54	11965	780.615159292297	24
54	11974	781.31624963008	6
54	11987	782.225765142549	8
54	11995	782.83138085964	5
54	12011	784.032039598339	11
54	12026	785.335182137655	12
54	12047	787.03617478701	16
54	12053	787.44065957005	3
54	12065	788.249683193171	7
54	12105	794	20
54	12123	795.7	16
54	12138	796.802805971875	10
54	12165	799.104779691355	22
54	12175	799.911842564813	7
54	12192	801.219230182937	12
54	12231	804.522668389424	32
54	12268	809.9	19
54	12283	811.1	11
54	12323	814.505014690472	33
54	12332	815.212922952011	6
54	12346	816.214495247293	9
54	12363	817.721054581152	14
54	12373	818.323028712316	5
54	12389	819.724049557302	13
54	12406	821.033400059325	12
54	12451	826.6	26
54	12463	827.7	10
54	12474	828.409228471808	6
54	12482	829.011539706088	5
54	12489	829.519124165906	4
54	12507	830.925127161622	13
54	12514	831.433981283462	4
54	12540	833.542541812626	20
54	12564	835.548358092329	19
54	12573	836.056261896369	4
54	12589	837.46485715398	13
54	12606	838.765706584613	12
54	12632	842.8	8
54	12654	844.7	18
54	12674	846.306334221588	15
54	12682	846.907554427533	5
54	12698	848.108975317674	11
54	12706	848.713796709804	5
54	12726	850.320735885386	15
54	12737	851.228485362868	8
54	12761	854.6	6
54	12768	855.2	5
54	12780	856.004037801672	7
54	12789	856.705821024202	6
54	12795	857.106335250687	3
54	12821	859.314765399008	21
54	12829	859.924740305887	5
54	12837	860.330298176942	3
54	12843	860.735558606172	3
54	12862	862.23994372345	14
54	12869	862.74386098954	4
54	12876	863.248674452464	4
54	12903	867.1	11
54	12915	868	8
54	12926	868.903928124157	8
54	12934	869.511775495367	5
54	12948	870.519370516786	9
54	12961	871.624318556127	10
54	12973	872.42559385186	7
54	13000	877.2	12
54	13017	878.6	13
54	13031	879.800709475786	11
54	13052	881.509141232985	16
54	13074	883.314065099869	17
54	13086	884.118214895669	7
54	13112	886.322084552778	21
54	13139	888.624851844897	22
54	13157	890.026829740509	13
54	13163	890.429956676365	3
54	13198	893.533808263252	30
54	13217	895.03837489933	14
54	13239	896.847542093458	17
54	13255	898.04951195652	11
54	13299	904.4	24
54	13311	905.5	10
54	13321	906.108985867521	5
54	13336	907.415677922041	12
54	13352	908.62275265385	11
54	13363	909.532091046958	8
54	13394	913.3	13
54	13422	915.8	24
54	13452	918.209624713526	23
54	13481	920.712999597314	24
54	13511	923.313856609499	25
54	13516	923.614588836413	2
54	13538	925.418069085558	17
54	13569	929.3	13
54	13590	931.1	17
54	13620	933.706223077941	25
54	13640	935.306759428802	15
54	13670	937.913406056797	25
54	13698	940.118956393073	21
54	13713	941.4286788244	12
54	13730	942.735022546103	12
54	13747	944.043602194358	12
54	13758	944.949098861755	8
54	13779	946.65713097305	16
54	13804	948.765983833055	20
54	13821	950.075746446036	12
54	13834	951.183342452825	10
54	13850	952.386410659521	11
54	13867	953.889334659496	14
54	13889	955.694040286639	17
54	13906	957.001199862472	12
54	13928	960.5	5
54	13940	961.6	10
54	13976	964.602810348935	29
54	13987	965.508580966607	8
54	14010	967.418252089383	18
54	14026	968.626235336962	11
54	14036	969.427023668289	7
54	14047	970.136776498483	6
54	14072	972.243548602425	20
54	14132	978.4	24
54	14147	979.8	13
54	14170	981.700595642579	18
54	14195	983.808392628477	20
54	14207	984.609347790278	7
54	14234	986.909813285228	22
54	14263	989.41327109751	24
54	14306	993.118288594188	36
54	14322	994.324416412312	11
54	14343	996.031061617514	16
54	14364	997.935457723812	18
54	14398	1001.6	16
54	14428	1004.1	24
54	14451	1006.001496935416	18
54	14464	1007.107461926628	10
54	14473	1007.80983442842	6
54	14482	1008.314649368221	4
54	14497	1009.622896235314	12
54	14512	1010.72526803643	10
54	14526	1011.927652820677	11
54	14566	1016.1	21
54	14581	1017.5	13
54	14591	1018.103609419879	5
54	14608	1019.607257569638	14
54	14638	1022.016217558931	23
54	14665	1024.323358662687	22
54	14680	1025.628714896894	12
54	14706	1027.835517454461	21
54	14752	1032.6	26
54	14800	1036.9	42
54	14823	1038.808850103334	18
54	14842	1040.3160450856	14
54	14855	1041.425880179161	10
54	14867	1042.233351917623	7
54	14879	1043.235924209849	9
54	14910	1045.936311571047	26
54	14938	1048.137286899584	21
54	14954	1049.542756848831	13
54	14979	1052.7	7
54	14988	1053.5	7
54	14998	1054.108634507954	5
54	15011	1055.209617145883	10
54	15050	1058.510390870701	32
54	15101	1065.1	31
54	15109	1065.8	6
54	15134	1067.902575339816	20
54	15149	1069.004373722294	10
54	15163	1070.010239594512	9
54	15175	1071.016418324276	9
54	15191	1072.220557728815	11
54	15236	1078.8	28
54	15254	1080.3	14
54	15259	1080.607664342306	2
54	15274	1081.913566498572	12
54	15294	1083.518621319655	15
54	15312	1084.925258669556	13
54	15333	1086.627408261365	16
54	15342	1087.337361273822	6
54	15414	1091.8	18
54	15429	1093	11
54	15446	1094.307059010842	12
54	15468	1096.108270207123	17
54	15499	1098.81760254799	26
54	15516	1100.121807799239	12
54	15530	1101.327108482431	11
54	15546	1102.533356522867	11
54	15559	1103.634472812477	10
54	15569	1104.244030066828	5
54	15577	1104.84573447121	5
54	15593	1106.053304748213	11
54	15686	1112.3	23
54	15703	1113.1	7
54	15717	1113.701399287183	5
54	15747	1114.904153828168	11
54	15757	1115.305257172802	3
54	15785	1116.608766639745	12
54	15793	1117.216589924811	5
54	15815	1119.018566637899	17
54	15826	1119.922107647504	8
54	15864	1123.123241304236	31
54	15871	1123.632272065663	4
54	15889	1125.03434397434	13
54	15898	1125.739069001571	6
54	15927	1128.04304962823	22
54	15946	1129.745203899779	16
54	15981	1133.8	18
54	15997	1135.1	12
54	16013	1136.302203521721	11
54	16028	1137.610352344798	12
54	16065	1140.713961786698	30
54	16090	1142.823551855348	20
54	16102	1143.833040420126	9
54	16124	1145.642528673644	17
54	16160	1149.8	18
54	16175	1151	11
54	16186	1151.901803705934	8
54	16201	1153.011603057691	10
54	16239	1156.220070459366	31
54	16247	1156.825934455176	5
54	16267	1158.430058628057	15
54	16283	1159.837138779872	13
54	16296	1160.741701617879	8
54	16332	1163.950088168028	31
54	16363	1167.3	13
54	16386	1169.3	19
54	16413	1171.609180483391	22
54	16438	1173.716598711362	20
54	16458	1175.322715289463	15
54	16484	1177.523724930235	21
54	16512	1179.924020347392	23
54	16538	1183.1	11
54	16559	1184.801411399138	16
54	16578	1186.307441436736	14
54	16592	1187.51435393229	11
54	16613	1189.222426908597	16
54	16638	1191.324749105378	20
54	16646	1191.931707640062	5
54	16676	1195.2	12
54	16695	1196.8	15
54	16714	1198.308483880183	14
54	16742	1200.714025162812	23
54	16751	1201.418411047462	6
54	16773	1203.225775224984	17
54	16790	1204.530510530875	12
54	16810	1206.138261957613	15
54	16830	1207.947435763377	17
54	16860	1211.2	12
54	16896	1214.3	30
54	16912	1215.705709353415	13
54	16932	1217.308043664325	15
54	16946	1218.308788315699	9
54	16957	1219.211049243708	8
54	16971	1220.21272491229	9
54	17009	1223.614429904017	33
54	17014	1223.916274201177	2
54	17055	1228.1	21
54	17069	1229.4	12
54	17082	1230.301385439184	8
54	17091	1231.003626144406	6
54	17108	1232.309317123448	12
54	17130	1234.109885137379	17
54	17149	1235.815462915489	16
54	17173	1237.818628389708	19
54	17195	1239.619678947297	17
54	17214	1241.129157615185	14
54	17243	1243.635638118979	24
54	17268	1246.8	8
54	17277	1247.6	7
54	17294	1248.900913439122	12
54	17317	1250.808801527802	18
54	17345	1253.218419329445	23
54	17360	1254.323245931815	10
54	17369	1255.026207879311	6
54	17403	1259.6	16
54	17412	1260.2	5
54	17443	1262.906701980594	26
54	17461	1264.312869825758	13
54	17493	1267.118361533574	27
54	17503	1267.927048463126	7
54	17513	1268.534110479085	5
54	17535	1270.33865451351	17
54	17543	1270.941252231455	5
54	17561	1274.2	2
54	17572	1275.2	9
54	17593	1276.907703810241	16
54	17613	1278.517341366261	15
54	17624	1279.426692486358	8
54	17647	1281.333228567965	18
54	17667	1282.938766445676	15
54	17676	1283.644690349174	6
54	17719	1288.3	23
54	17739	1290	16
54	17753	1291.203847708571	11
54	17769	1292.407363277747	11
54	17780	1293.308568914089	8
54	17788	1293.9177269833	5
54	17797	1294.421189456605	4
54	17806	1295.123399651143	6
54	17860	1299.7	17
54	17910	1304	42
54	17924	1305.20732997029	11
54	17937	1306.110884365992	8
54	17956	1307.819649738819	16
54	17967	1308.521651200985	6
54	17981	1309.724973783665	11
54	17992	1310.431298405842	6
54	18012	1314.4	4
54	18036	1316.5	20
54	18062	1318.702872227171	21
54	18090	1321.10624027243	23
54	18118	1323.513106713948	23
54	18144	1325.719218240169	21
54	18176	1328.322168440754	25
54	18209	1333.8	18
54	18223	1334.9	10
54	18228	1335.201993058591	2
54	18242	1336.205596303508	9
54	18268	1338.405699738062	21
54	18282	1339.608939163366	11
54	18303	1341.315212731063	16
54	18323	1342.921398189176	15
54	18345	1344.728939521777	17
54	18414	1349.4	14
54	18449	1350.9	14
54	18503	1353.308020491455	23
54	18537	1354.716326389484	13
54	18587	1357.024227941344	22
54	18614	1358.432697246824	13
54	18639	1360.537516519829	20
54	18654	1361.846828703103	12
54	18698	1365.653255719649	37
54	18719	1367.360616290156	16
54	18812	1372.5	25
54	18853	1374.3	17
54	18899	1376.200586614769	18
54	18947	1378.406793742281	21
54	18963	1379.810460696826	13
54	18978	1380.911525466242	10
54	18993	1382.016707460326	10
54	19025	1387.7	17
54	19038	1388.7	9
54	19052	1389.812597620256	10
54	19077	1391.916703967013	20
54	19086	1392.422077787805	4
54	19095	1393.12224835938	6
54	19110	1394.230268021437	10
54	19159	1401.2	32
54	19184	1403.4	21
54	19202	1404.805338261374	13
54	19219	1406.108123010706	12
54	19237	1407.710813382549	15
54	19249	1408.511511702287	7
54	19277	1410.914964438787	23
54	19293	1412.120839596184	11
54	19307	1413.324789370368	11
54	19330	1415.227446540535	18
54	19389	1421.9	39
54	19411	1423.8	18
54	19447	1426.805101442201	29
54	19481	1429.809834324383	29
54	19498	1431.116023591687	12
54	19520	1432.917217542724	17
54	19544	1434.926398888506	19
54	19570	1437.135096189343	21
54	19578	1437.740190683256	5
54	19607	1441.1	11
54	19623	1442.4	12
54	19635	1443.406951586792	9
54	19650	1444.511486543302	10
54	19661	1445.41569984523	8
54	19672	1446.12435802671	6
54	19682	1446.929396451982	7
54	19721	1452.2	22
54	19729	1452.9	6
54	19748	1454.409168911732	14
54	19777	1456.909482582688	24
54	19799	1458.712302833608	17
54	19821	1460.51424671673	17
54	19837	1461.921752764263	13
54	19861	1463.928498323885	19
54	19884	1465.835998469127	18
54	19905	1467.545479098927	16
54	19922	1468.854437817258	12
54	19963	1474.1	21
54	19973	1475	8
54	19989	1476.203293711293	11
54	20001	1477.203815593311	9
54	20016	1478.312219636415	10
54	20045	1480.819271354396	24
54	20062	1482.129141244546	12
54	20072	1482.938230997207	7
54	20081	1483.641304861716	6
54	20095	1484.64946232424	9
54	20123	1487.05136576399	23
54	20166	1492.3	23
54	20175	1493.1	7
54	20215	1496.504579090403	33
54	20243	1498.913386241508	23
54	20255	1499.915625976229	9
54	20278	1501.816656746457	18
54	20303	1503.918389157957	20
54	20314	1504.627004429555	6
54	20320	1505.031127671973	3
54	20329	1505.741067829184	6
54	20358	1508.044279986699	22
54	20367	1508.745350541628	6
54	20400	1511.647399792414	28
54	20412	1512.451612693086	7
54	20445	1517.6	16
54	20478	1520.4	27
54	20498	1522.009229828165	15
54	20536	1525.412056327337	33
54	20580	1530.4	24
54	20605	1532.6	21
54	20631	1534.804069617595	21
54	20636	1535.112157400238	2
54	20656	1536.715112746187	15
54	20680	1540.6	6
54	20698	1542.1	14
54	20711	1543.204730130145	10
54	20715	1543.407333782445	1
54	20732	1544.717143434986	12
54	20745	1545.823644697364	10
54	20762	1547.128115364828	12
54	20789	1551.2	12
54	20810	1553	17
54	20824	1554.002919985908	9
54	20840	1555.411813012855	13
54	20851	1556.116850661993	6
54	20874	1558.025898847562	18
54	20890	1559.42647612707	13
54	20915	1561.532585358342	20
54	20940	1563.637702038897	20
54	20980	1568	20
54	21007	1570.4	23
54	21033	1572.606481932851	21
54	21052	1574.115184510978	14
54	21081	1576.616373826755	24
54	21108	1578.922896770011	22
54	21129	1580.628420674808	16
54	21149	1584.5	5
54	21175	1586.8	22
54	21185	1587.60060924099	7
54	21201	1588.804235964328	11
54	21206	1589.11235474367	2
54	21222	1590.318375002069	11
54	21228	1590.727817226862	3
54	21257	1593.232620830593	24
54	21273	1594.435271257321	11
54	21308	1597.540511212421	30
54	21349	1602.1	21
54	21373	1604.2	20
54	21385	1605.204567870139	9
54	21399	1606.209192610916	9
54	21410	1607.110799584046	8
54	21435	1609.22055298316	20
54	21444	1609.927973867887	6
54	21464	1611.531034327351	15
54	21486	1613.338120446101	17
54	21501	1614.438746728005	10
54	21528	1616.739268343129	22
54	21552	1618.746740512614	19
54	21558	1619.156153934545	3
54	21572	1620.163254057302	9
54	21613	1626.1	21
54	21636	1628.1	19
54	21661	1630.200491754733	20
54	21685	1632.210475974712	19
54	21708	1634.118971017031	18
54	21719	1635.022497190402	8
54	21744	1637.130480642821	20
54	21769	1639.24016343729	20
54	21816	1644.9	29
54	21843	1647.3	23
54	21857	1648.306536635872	9
54	21909	1652.914815411261	45
54	21925	1654.120468241896	11
54	21937	1655.120496657311	9
54	21959	1656.920919625733	17
54	21971	1657.923852287604	9
54	21986	1659.028053014838	10
54	21991	1659.33732456072	2
54	22041	1665	30
54	22060	1666.6	15
54	22080	1668.207206214263	15
54	22102	1670.013651750687	17
54	22112	1670.820886003869	7
54	22131	1672.324760168283	14
54	22161	1674.931014672969	25
54	22182	1676.637604866306	16
54	22205	1678.545757854707	18
54	22227	1680.347821791081	17
54	22255	1682.753503399751	23
54	22304	1689.1	31
54	22311	1689.7	5
54	22325	1690.706218032594	9
54	22345	1692.306585398166	15
54	22361	1693.710613812346	13
54	22371	1694.311844373601	5
54	22386	1695.615794055235	12
54	22412	1697.816796310163	21
54	22419	1698.12599504618	2
54	22452	1701.029851846131	28
54	22509	1707.7	37
54	22522	1708.7	9
54	22545	1710.609891572461	18
54	22556	1711.518963458201	8
54	22573	1712.827595537042	12
54	22614	1716.329392566585	34
54	22645	1721.3	13
54	22656	1722.1	7
54	22685	1724.607643528694	24
54	22707	1726.414897010167	17
54	22723	1727.821074779421	13
54	22753	1730.224767982981	23
54	22761	1730.832668209239	5
54	22793	1735.4	14
54	22804	1736.2	7
54	22829	1738.304708471922	20
54	22838	1739.013467077871	6
54	22847	1739.71960124185	6
54	22860	1740.625397783479	8
54	22871	1741.529568792142	8
54	22886	1742.631511783516	10
54	23087	1750.1	41
54	23155	1753	28
54	23189	1754.402875016266	13
54	23207	1755.212087622694	7
54	23250	1757.218839326716	19
54	23296	1761.5	15
54	23316	1763.2	16
54	23336	1764.804159364285	15
54	23357	1766.507322926168	16
54	23364	1767.012646683564	4
54	23406	1772.2	22
54	23432	1774.5	22
54	23442	1775.304466031054	7
54	23456	1776.308944007053	9
54	23478	1778.113087718383	17
54	23497	1779.814870427938	16
54	23516	1781.324370765909	14
54	23527	1782.027145049468	6
54	23545	1783.63649277963	15
54	23568	1785.540416264434	18
54	23592	1787.550085136178	19
54	23616	1789.550148038747	19
54	23641	1792.9	9
54	23647	1793.4	4
54	23669	1795.205731769909	17
54	23678	1795.912176075241	6
54	23692	1796.91920832058	9
54	23718	1799.122584756284	21
54	23724	1799.528479677035	3
54	23771	1804.7	27
54	23781	1805.6	8
54	23801	1807.208527009792	15
54	23824	1809.114075889908	18
54	23845	1810.815912814451	16
54	23856	1811.718414553516	8
54	23880	1813.720392057607	19
54	23906	1817.1	11
54	23914	1817.8	6
54	23930	1819.003708374365	11
54	23956	1821.20793402777	21
54	23971	1822.311020449981	10
54	23977	1822.720570873838	3
54	24004	1825.02979031419	22
54	24023	1826.529949271595	14
54	24064	1830.031758956601	34
54	24101	1835.9	19
54	24132	1838.5	25
54	24155	1840.408611442912	18
54	24177	1842.210355600004	17
54	24196	1843.917530127183	16
54	24225	1846.218343714467	22
54	24267	1852.2	22
54	24293	1854.5	22
54	24317	1856.502935805825	19
54	24326	1857.204148016955	6
54	24342	1858.404153182752	11
54	24365	1860.305680025323	18
54	24376	1861.214505357896	8
54	24392	1862.421830895079	11
54	24414	1864.222817695927	17
54	24444	1869.2	12
54	24459	1870.4	11
54	24473	1871.605300962994	11
54	24488	1872.708217606541	10
54	24513	1874.80918729239	20
54	24523	1875.609217881391	7
54	24540	1876.913621424067	12
54	24548	1877.521725762787	5
54	24574	1879.723634447478	21
54	24599	1881.824269042733	20
54	24633	1885.6	16
54	24646	1886.6	9
54	24674	1889.009011972008	23
54	24679	1889.309900046339	2
54	24697	1890.715114419696	13
54	24718	1892.418840887088	16
54	24741	1894.327389859398	18
54	24755	1895.530507448433	11
54	24767	1896.339272054045	7
54	24793	1901	10
54	24815	1902.9	18
54	24835	1904.507799705539	15
54	24848	1905.608778957859	10
54	24889	1909.110981688161	34
54	24895	1909.515466948676	3
54	24948	1915.3	33
54	24963	1916.5	11
54	24975	1917.508047588677	9
54	24990	1918.612684833893	10
54	25002	1919.619573468658	9
54	25012	1920.225655048267	5
54	25056	1926.4	24
54	25064	1927.1	6
54	25090	1929.309756127819	21
54	25104	1930.318573404221	9
54	25113	1931.026906993827	6
54	25143	1933.629403921463	25
54	25153	1934.229990618894	5
54	25160	1934.734115698578	4
54	25168	1935.33487257422	5
54	25189	1937.042332700358	16
54	25206	1938.348888044338	12
54	25213	1938.856986092919	4
54	25246	1943.5	15
54	25267	1945.3	17
54	25284	1946.604865239553	12
54	25296	1947.608919566303	9
54	25312	1948.812748313931	11
54	25320	1949.422095029769	5
54	25335	1950.531708406464	10
54	25367	1955.7	17
54	25386	1957.3	15
54	25406	1958.906370210871	15
54	25422	1960.110525487679	11
54	25433	1961.013526072959	8
54	25450	1962.322614433912	12
54	25496	1968.6	26
54	25507	1969.6	9
54	25524	1970.903370154239	12
54	25545	1972.611616328488	16
54	25565	1974.216403246956	15
54	25598	1979.5	15
54	25611	1980.5	9
54	25624	1981.603660481385	10
54	25629	1981.911254038556	2
54	25643	1982.916514439744	9
54	25651	1983.525676288353	5
54	25669	1984.926039953899	13
54	25690	1988.6	6
54	25719	1991.2	25
54	25741	1993.006782957809	17
54	25760	1994.510546806764	14
54	25776	1995.914893526862	13
54	25790	1996.921241291394	9
54	25798	1997.530586970523	5
54	25815	1998.83820093428	12
54	25836	2000.542996428194	16
54	25858	2002.350487275761	17
54	25872	2003.552171880513	11
54	25892	2005.160684563842	15
54	25912	2006.763988748431	15
54	25939	2011	10
54	25962	2013	19
54	25970	2013.608641814833	5
54	25978	2014.011017098567	3
54	26009	2016.713414315663	26
54	26020	2017.620874525206	8
54	26034	2018.628606475267	9
54	26056	2020.434464373918	17
54	26071	2021.738218101445	12
54	26091	2023.345157411978	15
54	26102	2024.05420095269	6
54	26217	2031.5	35
54	26236	2032.3	7
54	26248	2033.002821888022	6
54	26268	2034.612612306076	15
54	26275	2035.112904450249	4
54	26290	2036.222182306252	10
54	26306	2037.630665616903	13
54	26324	2039.034199750476	13
54	26329	2039.342664202404	2
54	26341	2040.143079996277	7
54	26375	2045.8	18
54	26386	2046.6	7
54	26395	2047.309281713105	6
54	26399	2047.511363289115	1
54	26413	2048.520352409399	9
54	26432	2050.020581153238	14
54	26453	2051.925992514028	18
54	26467	2052.932550190773	9
54	26479	2053.933907177599	9
54	26493	2054.935667005059	9
54	26498	2055.239876304144	2
54	26507	2055.941675438695	6
54	26530	2058.5	5
54	26539	2059.3	7
54	26547	2059.905809701399	5
54	26569	2061.714975251594	17
54	26590	2063.424550993499	16