file 276840 1367237946                                          
version 2
run Join-99-20130429-14:17:20-17679
attr configname Join
attr datetime 20130429-14:17:20
attr experiment "\"Join\""
attr inifile omnetpp.ini
attr iterationvars $0=16384
attr iterationvars2 "$0=16384, $repetition=9"
attr measurement $0=16384
attr network Network
attr processid 17679
attr repetition 9
attr replication #9
attr resultdir results
attr runnumber 99
attr seedset 99

vector 99  Network.dyn_peer[0]  lookupHopsSig:vector  ETV
99	447 276393 43548 774294 28.208906710804 57041.247043330846 9414 1 271 531512 40007770
