file 187006 1367232568                                          
version 2
run Join-10-20130429-12:49:27-17679
attr configname Join
attr datetime 20130429-12:49:27
attr experiment "\"Join\""
attr inifile omnetpp.ini
attr iterationvars $0=64
attr iterationvars2 "$0=64, $repetition=0"
attr measurement $0=64
attr network Network
attr processid 17679
attr repetition 0
attr replication #0
attr resultdir results
attr runnumber 10
attr seedset 10

vector 10  Network.dyn_peer[0]  lookupHopsSig:vector  ETV
10	438 186568 377 63355 22.2 6203.913522437798 7290 0 12 24785 105857
