version 2
run Join-21-20130429-12:49:45-17679
attr configname Join
attr datetime 20130429-12:49:45
attr experiment "\"Join\""
attr inifile omnetpp.ini
attr iterationvars $0=128
attr iterationvars2 "$0=128, $repetition=1"
attr measurement $0=128
attr network Network
attr processid 17679
attr repetition 1
attr replication #1
attr resultdir results
attr runnumber 21
attr seedset 21

vector 21  Network.dyn_peer[0]  lookupHopsSig:vector  ETV
21	568	20.2	2
21	582	21.5	12
21	591	22.007795603037	4
21	597	22.414354372943	3
21	604	22.9220032344	4
21	615	23.825960649576	8
21	621	24.028150620323	1
21	643	28.4	4
21	649	28.9	4
21	657	29.501528697093	5
21	663	29.903519235972	3
21	672	30.412064192594	4
21	679	30.91847557382	4
21	686	31.422068914538	4
21	693	31.927262390332	4
21	703	32.528285495603	5
21	708	32.836783120375	2
21	717	33.537155618484	6
21	743	36.8	8
21	748	37.2	3
21	754	37.609893818725	3
21	763	38.116931169088	4
21	770	38.618142012068	4
21	776	39.018775975179	3
21	780	39.22771666203	1
21	784	39.427746971275	1
21	813	43.1	11
21	822	43.9	7
21	831	44.402963080131	4
21	835	44.609974984605	1
21	863	49	10
21	870	49.6	5
21	878	50.007292164147	3
21	885	50.509578569416	4
21	897	51.512021584409	9
21	907	52.117108527878	5
21	914	52.626463848494	4
21	922	53.231869546561	5
21	929	53.736217296334	4
21	950	56.3	3
21	957	56.9	5
21	962	57.202702639913	2
21	968	57.606058236677	3
21	973	57.906991370629	2
21	982	58.408907410778	4
21	986	58.616438731219	1
21	993	59.123764722576	4
21	998	59.431070029526	2
21	1005	59.936149454768	4
21	1031	62.8	8
21	1037	63.3	4
21	1043	63.702697173429	3
21	1051	64.107612576775	3
21	1057	64.515529134235	3
21	1062	64.819338020676	2
21	1083	68.3	3
21	1090	68.9	5
21	1096	69.302628851467	3
21	1101	69.605974534998	2
21	1105	69.812006051411	1
21	1115	70.421714304463	5
21	1121	70.830475050502	3
21	1128	71.331182844839	4
21	1134	71.74111577311	3
21	1144	72.345030947655	5
21	1161	76.1	1
21	1170	76.9	7
21	1175	77.200435690523	2
21	1183	77.809330931999	5
21	1192	78.227131906129	3
21	1198	78.633515012192	3
21	1205	79.141033579506	4
21	1211	79.544993119956	3
21	1215	79.75067196739	1
21	1242	82.9	9
21	1249	83.5	5
21	1258	84.008965455507	4
21	1263	84.315858840468	2
21	1270	84.824965679741	4
21	1276	85.229143882577	3
21	1298	88.4	4
21	1306	89.1	6
21	1314	89.700318033979	5
21	1321	90.004490228893	2
21	1327	90.41325166386	3
21	1343	91.822403454896	13
21	1357	92.822825455392	9
21	1364	93.323085777923	4
21	1372	93.93289207018	5
21	1392	95.538820354277	15
21	1414	98.4	4
21	1421	99	5
21	1428	99.507516428304	4
21	1439	100.212880899747	6
21	1446	100.721942452093	4
21	1454	101.326154764816	5
21	1461	101.833563421871	4
21	1474	102.735686379237	8
21	1494	106.2	2
21	1499	106.6	3
21	1503	106.806801118268	1
21	1514	107.711953092675	8
21	1524	108.320416444632	5
21	1546	112.4	4
21	1553	113	5
21	1557	113.209826318135	1
21	1562	113.514609030114	2
21	1566	113.715010620373	1
21	1570	113.920838924996	1
21	1578	114.225401501329	2
21	1582	114.426210512061	1
21	1592	115.23052723473	7
21	1614	118.4	4
21	1619	118.8	3
21	1629	119.605114397127	7
21	1634	119.911802089116	2
21	1644	120.517246807312	5
21	1651	121.026428821479	4
21	1666	122.132336840698	10
21	1673	122.633792294264	4
21	1685	123.642802866713	9
21	1707	126.4	4
21	1714	127	5
21	1720	127.401828941986	3
21	1731	128.103894213227	6
21	1737	128.509274470185	3
21	1743	128.913749273468	3
21	1751	129.520533205815	5
21	1755	129.721365487374	1
21	1778	132.5	5
21	1783	132.9	3
21	1789	133.308798249964	3
21	1801	134.118796698338	7
21	1811	134.926332114707	7
21	1833	138.4	4
21	1839	138.9	4
21	1845	139.305836430897	3
21	1849	139.50914610814	1
21	1858	140.012457988892	4
21	1878	144.2	2
21	1887	145	7
21	1895	145.600453311454	5
21	1904	146.100964026562	4
21	1916	147.101330416085	9
21	1945	151.1	11
21	1951	151.6	4
21	1961	152.205941635682	5
21	1967	152.610195374015	3
21	1972	152.913667627541	2
21	1978	153.322288557587	3
21	1986	153.929050133808	5
21	2013	156.9	9
21	2020	157.5	5
21	2029	158.00882551928	4
21	2042	159.111932365006	10
21	2048	159.515723600099	3
21	2061	160.421583333953	8
21	2084	164.5	5
21	2088	164.8	2
21	2094	165.203360210752	3
21	2100	165.610603325566	3
21	2105	165.910653002398	2
21	2117	166.714331306527	7
21	2143	170.8	8
21	2147	171.1	2
21	2152	171.404538988256	2
21	2158	171.808546871595	3
21	2170	172.611472186591	7
21	2177	173.113393421306	4
21	2192	174.129695274726	9
21	2218	178.8	8
21	2221	179	1
21	2228	179.503635424275	4
21	2237	180.012345949359	4
21	2242	180.219094913339	1
21	2246	180.424409462663	1
21	2270	184.6	6
21	2277	185.2	5
21	2290	186.108039196091	8
21	2303	187.210663947366	10
21	2310	187.716622052014	4
21	2325	188.817307180462	10
21	2336	189.719484988173	8
21	2358	192.4	4
21	2361	192.6	1
21	2368	193.106033406867	4
21	2374	193.51174211875	3
21	2385	194.219402173288	6
21	2391	194.626249027958	3
21	2402	195.531393246106	8
21	2407	195.834594466372	2
21	2415	196.237927451806	3
21	2437	200.4	4
21	2444	201	5
21	2453	201.702927361305	6
21	2464	202.409241673038	6
21	2473	203.110009226139	6
21	2480	203.610224603331	4
21	2484	203.81100284996	1
21	2490	204.014294598987	1
21	2495	204.318779012986	2
21	2501	204.723329369755	3
21	2509	205.327620429593	5
21	2523	206.331018357391	9
21	2547	210.6	6
21	2555	211.3	6
21	2561	211.703989501532	3
21	2569	212.104147555373	3
21	2579	212.911260298822	7
21	2588	213.616085698654	6
21	2600	214.417955607297	7
21	2610	215.218264752815	7
21	2632	218.6	6
21	2640	219.3	6
21	2647	219.808330469543	4
21	2658	220.517672885103	6
21	2665	221.021725313405	4
21	2672	221.525932044803	4
21	2682	222.132743913751	5
21	2694	223.133959894418	9
21	2720	226.8	8
21	2729	227.6	7
21	2734	227.900624029603	2
21	2751	229.204301825572	12
21	2764	230.109480650507	8
21	2771	230.610012046015	4
21	2783	231.520471912766	8
21	2787	231.728702506214	1
21	2809	234.4	4
21	2817	235.1	6
21	2824	235.604252181265	4
21	2837	236.513507688275	8
21	2859	240.4	4
21	2867	241.1	6
21	2871	241.300911619735	1
21	2876	241.610791639156	2
21	2902	244.8	8
21	2908	245.3	4
21	2914	245.706051188944	3
21	2924	246.307693395711	5
21	2932	246.910987126711	5
21	2940	247.513290776272	5
21	2950	248.120322699434	5
21	2968	252.3	3
21	2989	254.1	17
21	2998	254.806568024673	6
21	3007	255.508487938928	6
21	3032	258.7	7
21	3043	259.7	9
21	3052	260.20975004968	4
21	3061	260.91886531993	6
21	3066	261.222036612769	2
21	3080	262.227761861634	9
21	3105	266.7	7
21	3111	267.2	4
21	3117	267.609224780558	3
21	3127	268.217987395236	5
21	3133	268.621461120827	3
21	3160	272.9	9
21	3166	273.4	4
21	3176	274.006279946642	5
21	3186	274.810349288752	7
21	3197	275.719985733173	8
21	3219	278.4	4
21	3224	278.8	3
21	3232	279.403138239672	5
21	3239	279.904173347574	4
21	3249	280.510570514978	5
21	3271	284.4	4
21	3279	285.1	6
21	3284	285.409055778521	2
21	3299	286.51077339183	10
21	3304	286.820726553745	2
21	3310	287.229921361076	3
21	3317	287.738860424205	4
21	3326	288.242744899806	4
21	3339	289.349715687622	10
21	3344	289.657174983067	2
21	3354	290.262587845023	5
21	3375	294.3	3
21	3382	294.9	5
21	3389	295.409169982441	4
21	3396	295.821118740771	3
21	3407	296.521465398327	6
21	3430	300.5	5
21	3438	301.2	6
21	3442	301.40898058763	1
21	3448	301.811977262953	3
21	3456	302.2172622621	3
21	3463	302.724967836808	4
21	3470	303.229727882876	4
21	3477	303.734343766388	4
21	3481	303.936752907949	1
21	3501	306.2	2
21	3506	306.6	3
21	3518	307.608853516245	9
21	3527	308.109087029285	4
21	3534	308.614261991185	4
21	3541	309.119733102443	4
21	3568	312.9	9
21	3575	313.5	5
21	3584	314.002723413975	4
21	3591	314.51215149771	4
21	3597	314.922081863058	3
21	3603	315.331838203798	3
21	3607	315.540254106744	1
21	3620	316.449694623524	8
21	3639	320.1	1
21	3648	320.804183151088	6
21	3653	321.106536014961	2
21	3667	322.107751315318	9
21	3671	322.311488581751	1
21	3677	322.718863243329	3
21	3704	326.9	9
21	3714	327.8	8
21	3722	328.20501077634	3
21	3733	329.112506902245	8
21	3739	329.515949173713	3
21	3765	332.8	8
21	3781	334.1	12
21	3789	334.701875627187	5
21	3794	335.005333819845	2
21	3802	335.613088078111	5
21	3819	336.913316341045	12
21	3839	340.2	2
21	3844	340.6	3
21	3850	341.009725406893	3
21	3858	341.612829860876	5
21	3868	342.222013309987	5
21	3874	342.62531840709	3
21	3881	343.132221801525	4
21	3889	343.734473860314	5
21	3898	344.23650495817	4
21	3916	348.2	2
21	3922	348.7	4
21	3928	349.105422720294	3
21	3937	349.813172083899	6
21	3948	350.51795708492	6
21	3954	350.922688308689	3
21	3979	354.7	7
21	3988	355.5	7
21	3998	356.106127720072	5
21	4009	357.008768038712	8
21	4020	357.918512995847	8
21	4030	358.527360169427	5
21	4039	359.235450788666	6
21	4059	362.2	2
21	4070	363.2	9
21	4078	363.805620370537	5
21	4086	364.206168979985	3
21	4091	364.512164455406	2
21	4099	365.115482202447	5
21	4107	365.722889816991	5
21	4116	366.231047226462	4
21	4126	367.034647934794	7
21	4149	370.5	5
21	4152	370.7	1
21	4160	371.307637120303	5
21	4174	372.314411169776	9
21	4179	372.623739500638	2
21	4186	373.128109720722	4
21	4212	376.8	8
21	4218	377.3	4
21	4223	377.606668916672	2
21	4231	378.013220694876	3
21	4239	378.616435097901	5
21	4246	379.118688253942	4
21	4254	379.728400959961	5
21	4263	380.237085821059	4
21	4271	380.846985338692	5
21	4279	381.456001738636	5
21	4298	384.3	3
21	4304	384.8	4
21	4311	385.30839809993	4
21	4319	385.910771262133	5
21	4330	386.612864008175	6
21	4336	387.017708977401	3
21	4345	387.723270728558	6
21	4364	390.4	4
21	4370	390.9	4
21	4377	391.402907624768	4
21	4384	391.904672782166	4
21	4391	392.212790016744	2
21	4399	392.812922363686	5
21	4409	393.620737178953	7
21	4413	393.829806317073	1
21	4437	396.6	6
21	4444	397.2	5
21	4453	397.906001163879	6
21	4462	398.408665093369	4
21	4472	399.126698840646	6
21	4486	400.13344682355	9
21	4493	400.636762811977	4
21	4515	404.4	4
21	4518	404.6	1
21	4524	405.00783759196	3
21	4532	405.609130911544	5
21	4541	406.112134812237	4
21	4561	410.2	2
21	4568	410.8	5
21	4572	411.007254526107	1
21	4578	411.415197890253	3
21	4585	411.92062566524	4
21	4595	412.5305737902	5
21	4602	413.034272368476	4
21	4625	416.5	5
21	4635	417.4	8
21	4642	417.906617578405	4
21	4652	418.516107801144	5
21	4661	419.219637245557	6
21	4669	419.826862120484	5
21	4679	420.43161614007	5
21	4685	420.835931027786	3
21	4703	424.2	2
21	4709	424.7	4
21	4714	425.002866282423	2
21	4720	425.318630005108	2
21	4732	426.121195268578	7
21	4737	426.424825581734	2
21	4743	426.832553367889	3
21	4763	430.2	2
21	4767	430.5	2
21	4776	431.209628134132	6
21	4782	431.611315475189	3
21	4787	431.915619153602	2
21	4794	432.219627850295	2
21	4801	432.723792360133	4
21	4823	436.7	7
21	4830	437.3	5
21	4843	438.207200582188	8
21	4847	438.40892042471	1
21	4851	438.613759314277	1
21	4859	439.123025109926	4
21	4865	439.531215727377	3
21	4874	440.038791730172	4
21	4880	440.447054997704	3
21	4899	444.1	1
21	4906	444.7	5
21	4912	445.100919082765	3
21	4918	445.503444156059	3
21	4923	445.810867870216	2
21	4931	446.214389148586	3
21	4941	447.023650698143	7
21	4949	447.633386908064	5
21	4957	448.038368042986	3
21	4965	448.645759550162	5
21	4971	449.053730709253	3
21	4990	452.1	1
21	4995	452.5	3
21	4999	452.705270254511	1
21	5007	453.31510253681	5
21	5018	454.017019776558	6
21	5027	454.721544592571	6
21	5038	455.630333994691	8
21	5047	456.138676596739	4
21	5053	456.539153778887	3
21	5058	456.840603940543	2
21	5081	460.5	5
21	5084	460.7	1
21	5090	461.109221969016	3
21	5097	461.611504003195	4
21	5101	461.819700204745	1
21	5112	462.523745908805	6
21	5124	463.52551126868	9
21	5130	463.929263269684	3
21	5148	465.335140549623	13
21	5190	468.3	3
21	5195	468.7	3
21	5205	469.503198866853	7
21	5211	469.906645490347	3
21	5219	470.314548916492	3
21	5227	470.919768606362	5
21	5238	471.819944482914	8
21	5253	472.920860418503	10
21	5281	476.3	3
21	5288	476.9	5
21	5298	477.702507705937	7
21	5306	478.106387034383	3
21	5313	478.611699690477	4
21	5341	483	10
21	5347	483.5	4
21	5363	484.701395388683	11
21	5368	485.005547970209	2
21	5376	485.61495883725	5
21	5385	486.119715683037	4
21	5390	486.423868811345	2
21	5410	490.2	2
21	5418	490.9	6
21	5424	491.213310992002	2
21	5432	491.819803960785	5
21	5461	495.1	11
21	5468	495.7	5
21	5475	496.002779197085	2
21	5482	496.51176910046	4
21	5487	496.815202647908	2
21	5496	497.522320451437	6
21	5502	497.931635298634	3
21	5509	498.23337199671	2
21	5522	499.33961054384	10
21	5530	499.943754521403	5
21	5554	502.6	6
21	5560	503.1	4
21	5568	503.709364036589	5
21	5572	503.915982157263	1
21	5585	504.821505963125	8
21	5607	508.4	4
21	5617	509.3	8
21	5629	510.100283991093	7
21	5638	510.802797748664	6
21	5648	511.607453251973	7
21	5659	512.313048569365	6
21	5673	513.521209367828	11
21	5683	514.126262712408	5
21	5688	514.434673737181	2
21	5694	514.835213969657	3
21	5704	515.641171983715	7
21	5725	518.3	3
21	5730	518.7	3
21	5737	519.200544115433	4
21	5741	519.406156114747	1
21	5748	519.908992561301	4
21	5756	520.315346323348	3
21	5764	520.92084912685	5
21	5789	524.7	7
21	5800	525.7	9
21	5812	526.508892397016	7
21	5822	527.31031848715	7
21	5833	528.016515833694	6
21	5841	528.626392497888	5
21	5845	528.835467572526	1
21	5868	532.5	5
21	5876	533.2	6
21	5881	533.501176549897	2
21	5893	534.303717402182	7
21	5902	535.004073345197	6
21	5912	535.811854083667	7
21	5922	536.421703556921	5
21	5937	540	0
21	5941	540.3	2
21	5949	540.907345851925	5
21	5955	541.310116775275	3
21	5977	544.4	4
21	5986	545.2	7
21	5998	546.008263517473	7
21	6003	546.315527546556	2
21	6011	546.916711253811	5
21	6016	547.22645949858	2
21	6025	547.932116995998	6
21	6045	550.2	2
21	6051	550.7	4
21	6059	551.304304040095	5
21	6070	552.007033549707	6
21	6075	552.3101080488	2
21	6097	556.4	4
21	6105	557.1	6
21	6111	557.506390158648	3
21	6128	558.807862141686	12
21	6135	559.308096110303	4
21	6143	559.910726911159	5
21	6149	560.118087668345	1
21	6156	560.627135842715	4
21	6164	561.23014402495	5
21	6177	562.138747524064	8
21	6184	562.643214298541	4
21	6190	563.04972654162	3
21	6198	563.655785405687	5
21	6206	564.065289209077	3
21	6214	564.668006372551	5
21	6242	569	10
21	6250	569.7	6
21	6264	570.709498576554	9
21	6273	571.418356188635	6
21	6284	572.120809447538	6
21	6292	572.725303999302	5
21	6305	573.826776622172	10
21	6327	576.4	4
21	6331	576.7	2
21	6339	577.207909226943	4
21	6345	577.612296939898	3
21	6356	578.316694480304	6
21	6364	578.917549630023	5
21	6384	582.2	2
21	6390	582.7	4
21	6395	583.007222237598	2
21	6403	583.6113319688	5
21	6413	584.216045170395	5
21	6419	584.622365251263	3
21	6449	589.2	12
21	6455	589.7	4
21	6466	590.406324713078	6
21	6473	590.907919910842	4
21	6478	591.216330147738	2
21	6485	591.721181175362	4
21	6496	592.423740633994	6
21	6502	592.827210959573	3
21	6510	593.43236190967	5
21	6522	594.238836170597	7
21	6544	598.4	4
21	6548	598.7	2
21	6556	599.301622578373	5
21	6570	600.30416621412	9
21	6582	601.306531057132	9
21	6596	602.313398334232	9
21	6604	602.913510616481	5
21	6614	603.716953053652	7
21	6627	604.617849219476	8
21	6636	605.227509141977	5
21	6648	606.031550203571	7
21	6671	610.5	5
21	6678	611.1	5
21	6686	611.708529216556	5
21	6696	612.309908985718	5
21	6707	613.21002883657	8
21	6719	614.01243325438	7
21	6724	614.320017910728	2
21	6733	615.022982417643	6
21	6753	618.2	2
21	6760	618.8	5
21	6772	619.710627846081	8
21	6783	620.413690488293	6
21	6792	621.116306628865	6
21	6797	621.423730692135	2
21	6807	622.031340960397	5
21	6815	622.63285102453	5
21	6840	626.7	7
21	6849	627.5	7
21	6860	628.206741705262	6
21	6867	628.716602108636	4
21	6876	629.421441501927	6
21	6888	630.225357513163	7
21	6903	631.526916935549	12
21	6928	634.7	7
21	6932	635	2
21	6938	635.403170412806	3
21	6951	636.30625010684	8
21	6957	636.71157383143	3
21	6964	637.215679318735	4
21	6987	640.5	5
21	7002	641.9	13
21	7013	642.605850602653	6
21	7019	643.008401895583	3
21	7027	643.610651579516	5
21	7042	644.714617089871	10
21	7051	645.415771375125	6
21	7074	648.5	5
21	7081	649.1	5
21	7088	649.602005318785	4
21	7097	650.108965813496	4
21	7118	654.3	3
21	7126	655	6
21	7134	655.605148517284	5
21	7139	655.905273885309	2
21	7161	657.712200030846	17
21	7165	657.913395424702	1
21	7186	660.3	3
21	7197	661.3	9
21	7204	661.808536159638	4
21	7213	662.31805563636	4
21	7236	666.5	5
21	7245	667.3	7
21	7257	668.102383600657	7
21	7264	668.60831954702	4
21	7273	669.316860788126	6
21	7281	669.917268957154	5
21	7294	670.826059107727	8
21	7299	671.126748262143	2
21	7326	674.9	9
21	7333	675.5	5
21	7342	676.003456972853	4
21	7350	676.60848724824	5
21	7356	677.012191282656	3
21	7364	677.613110160758	5
21	7373	678.113343016796	4
21	7380	678.615818092468	4
21	7386	679.025421850365	3
21	7393	679.526916182537	4
21	7411	680.92855134139	13
21	7437	684.8	8
21	7442	685.2	3
21	7448	685.603008148942	3
21	7453	685.907445286579	2
21	7461	686.31488017138	3
21	7471	687.118073480205	7
21	7478	687.621178637504	4
21	7494	688.82406130357	11
21	7518	692.6	6
21	7524	693.1	4
21	7533	693.803411009362	6
21	7548	694.912940543747	10
21	7558	695.713637571189	7
21	7568	696.318140389964	5
21	7589	700.3	3
21	7596	700.9	5
21	7611	702.006182707648	10
21	7620	702.712249522902	6
21	7629	703.421712493483	6
21	7634	703.729346795055	2
21	7645	704.431549120499	6
21	7653	705.033686196885	5
21	7661	705.634039112098	5
21	7670	706.139067064667	4
21	7695	710.7	7
21	7703	711.4	6
21	7714	712.101185637854	6
21	7723	712.803156663868	6
21	7732	713.509069512758	6
21	7743	714.21747416268	6
21	7755	715.217675098133	9
21	7767	716.024505299014	7
21	7771	716.234103263093	1
21	7792	720.3	3
21	7800	721	6
21	7810	721.805134104304	7
21	7819	722.305888183207	4
21	7824	722.614649796475	2
21	7829	722.91796440519	2
21	7834	723.219909687257	2
21	7857	726.5	5
21	7864	727.1	5
21	7870	727.500177097914	3
21	7876	727.902222030425	3
21	7885	728.404176973704	4
21	7894	729.111248840544	6
21	7904	729.915852868788	7
21	7927	732.5	5
21	7937	733.4	8
21	7944	733.906185887656	4
21	7954	734.508440356717	5
21	7961	735.016729646519	4
21	7966	735.326543164149	2
21	7977	736.033906666234	6
21	7982	736.340699330943	2
21	7987	736.645048337294	2
21	7993	737.054333671284	3
21	8014	740.4	4
21	8020	740.9	4
21	8026	741.306333435932	3
21	8033	741.814665155412	4
21	8047	742.815745839258	9
21	8052	743.118154906779	2
21	8075	746.5	5
21	8078	746.7	1
21	8095	748.007914582886	12
21	8099	748.213583704919	1
21	8125	752.8	8
21	8129	753.1	2
21	8133	753.304129820214	1
21	8141	753.908422063083	5
21	8154	754.818073677952	8
21	8160	755.223860371029	3
21	8168	755.826322092365	5
21	8190	758.4	4
21	8197	759	5
21	8206	759.706348889949	6
21	8216	760.31242201364	5
21	8222	760.71287792052	3
21	8233	761.621821218227	8
21	8244	762.329747067925	6
21	8253	763.031273899064	6
21	8280	766.9	9
21	8288	767.6	6
21	8297	768.100108796169	4
21	8305	768.701802375809	5
21	8312	769.204138042173	4
21	8320	769.808590337709	5
21	8331	770.508621675898	6
21	8337	770.917602835106	3
21	8347	771.720372252959	7
21	8371	774.6	6
21	8378	775.2	5
21	8392	776.206470960665	9
21	8405	777.309993678426	10
21	8413	777.910915608416	5
21	8422	778.411282821193	4
21	8445	782.5	5
21	8454	783.3	7
21	8465	784.009433111604	6
21	8473	784.615071983323	5
21	8482	785.318617000747	6
21	8493	786.022685737246	6
21	8515	790.4	4
21	8523	791.1	6
21	8530	791.603632597432	4
21	8542	792.409933413618	7
21	8551	793.112344665361	6
21	8558	793.621356939267	4
21	8568	794.223023566506	5
21	8573	794.527792047888	2
21	8592	798.1	1
21	8602	799	8
21	8606	799.202309347908	1
21	8616	799.916679906906	6
21	8627	800.620760858382	6
21	8654	804.9	9
21	8660	805.4	4
21	8667	805.905162095681	4
21	8677	806.510967752621	5
21	8685	807.118796958031	5
21	8689	807.322773951084	1
21	8702	808.226869104117	8
21	8711	808.927565126667	6
21	8717	809.337027257754	3
21	8722	809.64043633644	2
21	8732	810.241381737277	5
21	8742	811.047096852007	7
21	8768	814.8	8
21	8773	815.2	3
21	8782	815.904162023835	6
21	8790	816.312708993283	3
21	8798	816.918157738932	5
21	8805	817.422899119605	4
21	8812	817.923968013432	4
21	8821	818.429591098353	4
21	8826	818.738201485089	2
21	8849	822.5	5
21	8856	823.1	5
21	8861	823.403723674663	2
21	8871	824.003818387484	5
21	8878	824.511210950237	4
21	8885	825.012096296778	4
21	8890	825.316552211429	2
21	8895	825.62516079149	2
21	8900	825.92985322094	2
21	8918	828.2	2
21	8930	829.3	10
21	8937	829.804975567283	4
21	8944	830.112399967966	2
21	8950	830.52089748751	3
21	8956	830.92419208769	3
21	8960	831.126229589262	1
21	8965	831.435569638264	2
21	8977	832.242375853989	7
21	8998	836.3	3
21	9007	837.1	7
21	9017	837.90239098807	7
21	9030	838.806717177076	8
21	9052	842.4	4
21	9058	842.9	4
21	9068	843.702819130758	7
21	9076	844.112026255393	3
21	9083	844.613907390603	4
21	9090	845.121866655122	4
21	9097	845.627429359951	4
21	9107	846.234555984896	5
21	9119	847.238125940398	9
21	9126	847.740564640506	4
21	9135	848.241017487949	4
21	9140	848.547267234668	2
21	9165	852.7	7
21	9171	853.2	4
21	9175	853.40199027972	1
21	9182	853.907508880995	4
21	9192	854.509840292463	5
21	9200	855.118336514342	5
21	9213	856.020446570655	8
21	9223	856.822635428153	7
21	9229	857.229555561057	3
21	9236	857.735618119629	4
21	9245	858.242874275099	4
21	9250	858.544901523718	2
21	9272	862.4	4
21	9280	863.1	6
21	9296	864.300442094106	11
21	9304	864.905756023669	5
21	9312	865.510754024382	5
21	9322	866.118991235357	5
21	9331	866.823701894217	6
21	9338	867.323834370466	4
21	9360	870.4	4
21	9365	870.8	3
21	9374	871.501173928715	6
21	9394	873.109370446167	15
21	9403	873.810298338184	6
21	9416	874.719333905089	8
21	9424	875.324260106999	5
21	9438	876.326666023567	9
21	9460	880.4	4
21	9464	880.7	2
21	9470	881.103666055495	3
21	9474	881.311599486711	1
21	9479	881.617172388195	2
21	9489	882.219767939707	5
21	9495	882.622512552433	3
21	9512	886.2	2
21	9520	886.9	6
21	9524	887.100927794517	1
21	9529	887.410857219385	2
21	9533	887.614517110878	1
21	9541	888.01538680217	3
21	9551	888.822516240351	7
21	9557	889.228990856848	3
21	9569	890.038503768468	7
21	9576	890.547348286729	4
21	9598	894.4	4
21	9606	895.1	6
21	9613	895.606471782727	4
21	9624	896.311516060964	6
21	9632	896.911840402378	5
21	9637	897.220019793474	2
21	9644	897.721870547631	4
21	9655	898.423948475721	6
21	9659	898.627002333514	1
21	9679	902.2	2
21	9684	902.6	3
21	9688	902.805058046304	1
21	9695	903.313661758575	4
21	9700	903.614619739264	2
21	9712	904.420408528075	7
21	9739	908.9	9
21	9745	909.4	4
21	9755	910.004290966067	5
21	9765	910.81265685045	7
21	9776	911.719432815961	8
21	9791	912.819930577164	10
21	9821	917.2	12
21	9828	917.8	5
21	9839	918.503505244709	6
21	9844	918.808823075056	2
21	9864	922.2	2
21	9867	922.4	1
21	9872	922.704709288247	2
21	9879	923.21358796267	4
21	9888	923.917914739671	6
21	9900	924.723906436181	7
21	9910	925.526535544623	7
21	9915	925.831496483492	2
21	9926	926.536052773626	6
21	9931	926.842356393496	2
21	9938	927.345031695154	4
21	9962	930.6	6
21	9970	931.3	6
21	9981	932.001201630963	6
21	9988	932.510802959722	4
21	10002	933.712153782452	11
21	10013	934.414644022007	6
21	10021	935.023019415752	5
21	10026	935.326533183492	2
21	10034	935.934698368082	5
21	10045	936.544418979227	5
21	10053	937.152476887924	5
21	10076	940.5	5
21	10081	940.9	3
21	10087	941.303319417655	3
21	10099	942.109429063152	7
21	10104	942.411869890561	2
21	10113	943.112605332563	6
21	10121	943.722075011521	5
21	10125	943.927173415713	1
21	10132	944.237123658635	2
21	10141	944.941789444669	6
21	10151	945.748860840965	7
21	10158	946.055158247963	2
21	10164	946.272509036068	1
21	10188	950.7	7
21	10195	951.3	5
21	10207	952.107724763171	7
21	10213	952.514818603137	3
21	10218	952.818740226979	2
21	10225	953.319017616751	4
21	10229	953.52300109264	1
21	10235	953.927434023088	3
21	10247	954.732032285395	7
21	10270	958.5	5
21	10277	959.1	5
21	10282	959.401976381498	2
21	10289	959.908687483041	4
21	10301	960.711318185787	7
21	10308	961.21531313079	4
21	10316	961.819479867048	5
21	10325	962.326239407123	4
21	10338	963.426292147459	10
21	10362	966.6	6
21	10367	967	3
21	10386	968.50373559161	14
21	10392	968.909772665802	3
21	10397	969.212165887468	2
21	10403	969.614242493904	3
21	10408	969.916893863124	2
21	10415	970.223274677165	2
21	10436	974.3	3
21	10446	975.2	8
21	10453	975.704120539641	4
21	10467	976.704518276581	9
21	10473	977.113653379743	3
21	10497	980.6	6
21	10503	981.1	4
21	10513	981.90428561371	7
21	10526	982.813060284843	8
21	10532	983.222135937969	3
21	10538	983.624714033765	3
21	10559	986.3	3
21	10565	986.8	4
21	10571	987.207055646823	3
21	10579	987.816096593303	5
21	10587	988.220066522032	3
21	10593	988.623716383229	3
21	10606	989.723780341161	10
21	10616	990.327209537293	5
21	10628	991.327972083131	9
21	10642	992.336722525234	9
21	10647	992.645973883424	2
21	10671	996.6	6
21	10675	996.9	2
21	10679	997.102316335437	1
21	10684	997.406516226657	2
21	10690	997.808170492068	3
21	10696	998.013822422813	1
21	10704	998.621473657065	5
21	10728	1002.6	6
21	10733	1003	3
21	10741	1003.603881652439	5
21	10753	1004.407777160014	7
21	10768	1005.717371562038	12
21	10776	1006.122007814621	3
21	10786	1006.927397223104	7
21	10793	1007.436885173228	4
21	10805	1008.245075940094	7
21	10811	1008.646932367035	3
21	10821	1009.447224538889	7
21	10834	1010.349003369569	8
21	10857	1014.5	5
21	10861	1014.8	2
21	10870	1015.413611649204	5
21	10880	1016.022642265343	5
21	10885	1016.332325052231	2
21	10893	1016.840503204779	4
21	10898	1017.14927177715	2
21	10918	1020.5	5
21	10930	1021.6	10
21	10944	1022.605275754698	9
21	10956	1023.612306137997	9
21	10981	1026.7	7
21	10986	1027.1	3
21	10993	1027.603316744193	4
21	11005	1028.408870142604	7
21	11011	1028.813228140558	3
21	11018	1029.321934647395	4
21	11026	1029.926478412128	5
21	11033	1030.234204364323	2
21	11042	1030.943089622265	6
21	11065	1034.5	5
21	11071	1035	4
21	11079	1035.600974631798	5
21	11091	1036.403007298386	7
21	11102	1037.303133243775	8
21	11123	1040.3	3
21	11129	1040.8	4
21	11135	1041.202877962558	3
21	11143	1041.803536766421	5
21	11154	1042.506133380593	6
21	11163	1043.214848400103	6
21	11171	1043.814958250506	5
21	11189	1046.3	3
21	11198	1047.1	7
21	11207	1047.805553574515	6
21	11215	1048.214474602739	3
21	11226	1049.114809122014	8
21	11235	1049.823591792083	6
21	11245	1050.428558861171	5
21	11252	1050.93175507321	4
21	11260	1051.540788489656	5
21	11272	1052.34411947534	7
21	11299	1056.9	9
21	11313	1058	10
21	11323	1058.807239644413	7
21	11332	1059.508945332013	6
21	11352	1062.2	2
21	11361	1063	7
21	11367	1063.405192058321	3
21	11373	1063.805218250327	3
21	11381	1064.21105617124	3
21	11390	1064.914432832106	6
21	11419	1069.1	11
21	11423	1069.4	2
21	11429	1069.807117838002	3
21	11437	1070.207266061025	3
21	11443	1070.608362069917	3
21	11451	1071.216281456463	5
21	11460	1071.920817620265	6
21	11476	1073.125173968143	11
21	11497	1076.3	3
21	11503	1076.8	4
21	11512	1077.503494652167	6
21	11518	1077.907166689475	3
21	11538	1079.510858761392	15
21	11547	1080.01092147627	4
21	11571	1084.6	6
21	11578	1085.2	5
21	11582	1085.409022554021	1
21	11592	1086.018249213501	5
21	11605	1087.125791957542	10
21	11612	1087.630409100705	4
21	11623	1088.337715831806	6
21	11630	1088.845013603986	4
21	11637	1089.353217338208	4
21	11658	1092.3	3
21	11665	1092.9	5
21	11672	1093.400711182127	4
21	11679	1093.901194738379	4
21	11688	1094.41022772878	4
21	11695	1094.918380573252	4
21	11702	1095.425396561906	4
21	11712	1096.025864479915	5
21	11720	1096.633573087659	5
21	11728	1097.242493251911	5
21	11734	1097.644116973545	3
21	11757	1100.5	5
21	11764	1101.1	5
21	11769	1101.408367553211	2
21	11776	1101.911476884644	4
21	11783	1102.221211018077	2
21	11790	1102.721257982215	4
21	11796	1103.127718574659	3
21	11820	1106.6	6
21	11823	1106.8	1
21	11835	1107.800927455208	9
21	11848	1108.705291133273	8
21	11857	1109.414852359659	6
21	11870	1110.322813757353	8
21	11892	1114.4	4
21	11904	1115.5	10
21	11909	1115.805861089855	2
21	11919	1116.410124864877	5
21	11925	1116.726633402526	2
21	11930	1117.035497800617	2
21	11937	1117.539213339034	4
21	11957	1120.2	2
21	11961	1120.5	2
21	11968	1121.004031956389	4
21	11974	1121.411839652601	3
21	11981	1121.921453252224	4
21	11988	1122.224019239606	2
21	11998	1123.028137145487	7
21	12004	1123.435645149897	3
21	12024	1126.2	2
21	12031	1126.8	5
21	12038	1127.304425751192	4
21	12045	1127.806138718225	4
21	12051	1128.012065679541	1
21	12055	1128.214077969655	1
21	12063	1128.816227123409	5
21	12082	1132.1	1
21	12088	1132.6	4
21	12097	1133.309235046568	6
21	12108	1134.012029920694	6
21	12116	1134.620819356889	5
21	12123	1135.128090862108	4
21	12136	1136.0346553186	8
21	12152	1140.1	1
21	12159	1140.7	5
21	12165	1141.105449844955	3
21	12171	1141.5152865207	3
21	12181	1142.115438327648	5
21	12189	1142.722306167726	5
21	12193	1142.931229702339	1
21	12198	1143.237958096226	2
21	12206	1143.846310584614	5
21	12220	1144.848603706649	9
21	12243	1148.5	5
21	12255	1149.6	10
21	12263	1150.001240101198	3
21	12275	1151.003274763813	9
21	12282	1151.511163380129	4
21	12288	1151.920939024283	3
21	12302	1152.929498894215	9
21	12309	1153.438253923927	4
21	12314	1153.746611938811	2
21	12323	1154.249693676495	4
21	12346	1158.6	6
21	12350	1158.9	2
21	12362	1159.909803860399	9
21	12369	1160.218239086186	2
21	12394	1164.7	7
21	12403	1165.5	7
21	12416	1166.406447013251	8
21	12425	1167.112679437627	6
21	12446	1170.3	3
21	12452	1170.8	4
21	12462	1171.608609895713	7
21	12475	1172.51445129919	8
21	12484	1173.215855331852	6
21	12496	1174.02184949964	7
21	12507	1174.924240714115	8
21	12529	1178.4	4
21	12534	1178.8	3
21	12542	1179.406565644876	5
21	12549	1179.91252891458	4
21	12555	1180.119782487981	1
21	12561	1180.522361338308	3
21	12568	1181.024571688507	4
21	12594	1185.1	11
21	12598	1185.4	2
21	12608	1186.005737962932	5
21	12613	1186.310418624719	2
21	12620	1186.810465546212	4
21	12628	1187.416840131668	5
21	12634	1187.818333993347	3
21	12654	1190.2	2
21	12662	1190.9	6
21	12670	1191.502834477056	5
21	12679	1192.006751930831	4
21	12685	1192.410332671786	3
21	12691	1192.820047543605	3
21	12698	1193.32622481744	4
21	12705	1193.83329783139	4
21	12731	1197	10
21	12737	1197.5	4
21	12748	1198.20286884607	6
21	12753	1198.509022448306	2
21	12761	1199.116882825201	5
21	12767	1199.516945194737	3
21	12778	1200.218647846861	6
21	12788	1201.026020927286	7
21	12796	1201.633731170067	5
21	12804	1202.041781961241	3
21	12808	1202.249678484865	1