version 2
run Join-58-20130429-12:51:19-17679
attr configname Join
attr datetime 20130429-12:51:19
attr experiment "\"Join\""
attr inifile omnetpp.ini
attr iterationvars $0=1024
attr iterationvars2 "$0=1024, $repetition=8"
attr measurement $0=1024
attr network Network
attr processid 17679
attr repetition 8
attr replication #8
attr resultdir results
attr runnumber 58
attr seedset 58

vector 58  Network.dyn_peer[0]  lookupHopsSig:vector  ETV
58	3113	20.2	22
58	3127	21.5	12
58	3155	23.906769166248	23
58	3179	25.915574812967	19
58	3200	27.624170156583	16
58	3216	28.831881754808	11
58	3232	30.039267460564	11
58	3263	35.6	16
58	3296	38.4	27
58	3306	39.207727861546	7
58	3315	39.915603836972	6
58	3343	42.119959426463	21
58	3390	46.2288325908	40
58	3413	50.5	5
58	3449	53.8	32
58	3467	55.208133608754	13
58	3485	56.613688974198	13
58	3507	58.413762345816	17
58	3515	59.020236589693	5
58	3530	60.120896934849	10
58	3541	61.022970461527	8
58	3577	65.8	18
58	3592	67	11
58	3608	68.207529811523	11
58	3624	69.610182158382	13
58	3646	71.415990216639	17
58	3664	72.823594346605	13
58	3686	74.623906286749	17
58	3715	79.4	14
58	3718	79.6	1
58	3749	82.000664645828	23
58	3755	82.401234415123	3
58	3768	83.501552826821	10
58	3782	84.505478575924	9
58	3797	85.811203980104	12
58	3829	89.7	17
58	3840	90.5	7
58	3847	91.008290209271	4
58	3852	91.310659448494	2
58	3878	93.517627514266	21
58	3896	94.925569122764	13
58	3906	95.734261928677	7
58	3913	96.043348039063	2
58	3921	96.647833520809	5
58	3939	98.050113793184	13
58	3948	98.754257161064	6
58	3974	100.963533576501	21
58	4007	105.5	15
58	4021	106.6	10
58	4032	107.503626015663	8
58	4053	109.210252832017	16
58	4065	110.017769149426	7
58	4076	110.927276285032	8
58	4091	112.029331077676	10
58	4107	113.434479269949	13
58	4127	115.035508196503	15
58	4152	118.7	7
58	4164	119.8	10
58	4186	121.606195299562	17
58	4210	123.61156965973	19
58	4233	125.514073155172	18
58	4244	126.219339262844	6
58	4257	127.320907032465	10
58	4273	128.528734455929	11
58	4292	130.038038822213	14
58	4307	131.344076543669	12
58	4340	135.6	16
58	4343	135.8	1
58	4354	136.500059441928	6
58	4383	139.008159381227	24
58	4391	139.608716078515	5
58	4400	140.110346040695	4
58	4408	140.717750301246	5
58	4413	141.026502427038	2
58	4419	141.432358290528	3
58	4429	142.038147628515	5
58	4435	142.440860002122	3
58	4447	143.445144340544	9
58	4503	149.6	36
58	4515	150.5	8
58	4534	152.000363503422	14
58	4550	153.401348802875	13
58	4576	155.518082054516	20
58	4594	156.923298714484	13
58	4622	161	10
58	4626	161.3	2
58	4647	163.008720578681	16
58	4669	164.815031704964	17
58	4677	165.41691816231	5
58	4711	169.6	16
58	4726	170.8	11
58	4749	172.709778745651	18
58	4755	173.117455321267	3
58	4771	174.31931187049	11
58	4787	175.728867706318	13
58	4798	176.436368473765	6
58	4812	177.64317892992	11
58	4826	178.645881208438	9
58	4846	180.255720778832	15
58	4853	180.756140073484	4
58	4862	181.463219494523	6
58	4882	183.064192851494	15
58	4893	183.968775560086	8
58	4907	184.97313701113	9
58	4925	186.381631288665	13
58	4981	193.6	36
58	4999	195.1	14
58	5013	196.104636810033	9
58	5030	197.614029610627	14
58	5048	199.016489821304	13
58	5058	199.820330962775	7
58	5070	200.629631995001	7
58	5090	202.230017481228	15
58	5110	206.4	4
58	5121	207.4	9
58	5131	208.003391699881	5
58	5139	208.606391149975	5
58	5149	209.41089288897	7
58	5182	212.117370827518	26
58	5197	213.423647546659	12
58	5229	216.0296011971	25
58	5242	217.138751403898	10
58	5251	217.840579396764	6
58	5285	221.6	16
58	5299	222.7	10
58	5318	224.201647337342	14
58	5337	225.905354593144	16
58	5351	226.911904831052	9
58	5370	228.414642499818	14
58	5392	230.223994438615	17
58	5406	231.428420046804	11
58	5417	232.128578017534	6
58	5471	239.4	34
58	5487	240.7	12
58	5513	242.907983754514	21
58	5530	244.210912764413	12
58	5542	245.211698384683	9
58	5557	246.320010214843	10
58	5583	248.526396832961	21
58	5618	253.7	17
58	5639	255.5	17
58	5655	256.703930572792	11
58	5682	259.005084453217	22
58	5704	260.809976518809	17
58	5726	262.612562190159	17
58	5750	264.616451245124	19
58	5763	265.717477035444	10
58	5788	268.9	9
58	5806	270.4	14
58	5828	272.207607393828	17
58	5838	273.00806293382	7
58	5855	274.309576621166	12
58	5879	278.6	6
58	5888	279.4	7
58	5910	281.202382535075	17
58	5941	283.911575704808	26
58	6012	287.6	16
58	6063	289.8	21
58	6101	291.50469545202	16
58	6137	293.011898158594	14
58	6151	293.61709328186	5
58	6173	294.422268772334	7
58	6210	296.522719011471	20
58	6298	302	20
58	6310	303.1	10
58	6340	305.706224403437	25
58	6361	307.412308058549	16
58	6383	309.214454055627	17
58	6390	309.720527175164	4
58	6405	310.830347690125	10
58	6426	312.534077566947	16
58	6434	313.137118050233	5
58	6450	314.343858234561	11
58	6468	315.945596787768	15
58	6479	316.653077288394	6
58	6488	317.353790820416	6
58	6513	320.8	8
58	6522	321.6	7
58	6541	323.109061390322	14
58	6558	324.417369092756	12
58	6567	325.122651166214	6
58	6585	326.528213070439	13
58	6642	331.629037913841	50
58	6679	335.9	19
58	6700	337.7	17
58	6710	338.30518302872	5
58	6732	340.105607108051	17
58	6740	340.709802757772	5
58	6754	341.918344103948	11
58	6767	342.826097596255	8
58	6788	344.535557782363	16
58	6819	347.235967392133	26
58	6872	353.3	33
58	6901	355.9	25
58	6922	357.603183494603	16
58	6942	359.209676565729	15
58	6983	362.710821508798	34
58	7004	364.416493257736	16
58	7067	369.2	12
58	7094	370.8	15
58	7115	372.503038723063	16
58	7140	374.612457851014	20
58	7163	376.521001949762	18
58	7189	378.721508437122	21
58	7211	380.53116474752	17
58	7230	382.040458359703	14
58	7242	383.048166997962	9
58	7257	384.148826092019	10
58	7282	386.257866528689	20
58	7298	387.665349431187	13
58	7323	389.770205890084	20
58	7337	390.775056881682	9
58	7361	392.7838445731	19
58	7382	396.4	4
58	7395	397.6	11
58	7409	398.608444561304	9
58	7419	399.415817278027	7
58	7429	400.017118916657	5
58	7436	400.525940739068	4
58	7448	401.526189231016	9
58	7471	403.427665379781	18
58	7490	404.928879316221	14
58	7502	405.933845794878	9
58	7526	407.943750733683	19
58	7541	409.049521283124	10
58	7577	412.058223037839	29
58	7591	413.258565801471	11
58	7626	417.7	17
58	7647	419.5	17
58	7670	421.401761471217	18
58	7681	422.104720989651	6
58	7709	424.510690634251	23
58	7752	428.211798957134	36
58	7768	429.617854850028	13
58	7777	430.121540542132	4
58	7792	431.423806924567	12
58	7802	432.030091670477	5
58	7820	433.638899433619	15
58	7865	438.5	25
58	7873	439.2	6
58	7894	440.90201230956	16
58	7914	442.503464507956	15
58	7930	443.910342026461	13
58	7962	446.519965305408	25
58	7978	447.925401863861	13
58	7997	449.430442609298	14
58	8013	450.631547756467	11
58	8032	452.134428806323	14
58	8048	453.539883332722	13
58	8070	455.340394356131	17
58	8111	460.1	21
58	8121	461	8
58	8140	462.503467352965	14
58	8153	463.608822449517	10
58	8185	466.216652356434	25
58	8213	468.623209820549	23
58	8224	469.527408678933	8
58	8249	471.635342566357	20
58	8289	476	20
58	8296	476.6	5
58	8311	477.901330433003	12
58	8326	479.006980438459	10
58	8333	479.51372971257	4
58	8353	481.121982520232	15
58	8360	481.629805208274	4
58	8391	484.042800830431	23
58	8435	490.4	24
58	8458	492.4	19
58	8474	493.808085666843	13
58	8498	495.81717030648	19
58	8519	497.520423339855	16
58	8542	499.420915530014	18
58	8564	501.226792180335	17
58	8590	505.1	11
58	8613	507.1	19
58	8641	509.501999918585	23
58	8662	511.210922352447	16
58	8688	513.412734172892	21
58	8695	513.91277539463	4
58	8716	515.619791505131	16
58	8740	517.625335898619	19
58	8766	519.825794010852	21
58	8786	521.435364788338	15
58	8808	523.24455143766	17
58	8815	523.748793976036	4
58	8849	527.6	16
58	8873	529.7	20
58	8877	529.904481819709	1
58	8886	530.405936232443	4
58	8900	531.61226701374	11
58	8949	535.917428030633	42
58	9034	540.3	23
58	9055	542.1	17
58	9082	544.402820963228	22
58	9097	545.708479450982	12
58	9116	547.214371835567	14
58	9145	549.714744711428	24
58	9164	551.221208563237	14
58	9204	556.3	23
58	9217	557.5	11
58	9236	559.007857072029	14
58	9250	560.010735445648	9
58	9266	561.416633296871	13
58	9277	562.118083775028	6
58	9288	563.026808158779	8
58	9306	564.435474158288	13
58	9334	569.2	12
58	9349	570.4	11
58	9357	571.001276620882	5
58	9373	572.20238960236	11
58	9380	572.704484886291	4
58	9397	574.008998489954	12
58	9414	575.51036841807	14
58	9436	578.7	7
58	9459	580.7	19
58	9480	582.408558461989	16
58	9497	583.916432179239	14
58	9518	585.617258454757	16
58	9535	586.927119820525	12
58	9550	588.036556533488	10
58	9567	589.545070082909	14
58	9610	593.6	16
58	9621	594.4	7
58	9634	595.504584856105	10
58	9650	596.70833726246	11
58	9661	597.614806480317	8
58	9676	598.717851352153	10
58	9722	604.6	26
58	9725	604.8	1
58	9750	606.905931979389	20
58	9775	609.010779604186	20
58	9785	609.814658924868	7
58	9799	610.814823245525	9
58	9812	611.917179210535	10
58	9831	613.418638231579	14
58	9843	614.226827817945	7
58	9854	615.127560754664	8
58	9872	616.530436824486	13
58	9885	617.639981735227	10
58	9940	623.6	36
58	9951	624.4	7
58	9974	626.305525258879	18
58	9982	626.908914721216	5
58	9989	627.418483181729	4
58	10038	632.9	29
58	10042	633.2	2
58	10064	635.009406440232	17
58	10086	636.815104617054	17
58	10108	638.624841036416	17
58	10123	639.927615994206	12
58	10180	645.7	37
58	10196	647	12
58	10226	649.609421791047	25
58	10253	651.910790665069	22
58	10273	653.518354233345	15
58	10289	654.726087331315	11
58	10303	655.927606847767	11
58	10313	656.53131420632	5
58	10345	659.336662198234	27
58	10367	661.143703297822	17
58	10383	662.347988691155	11
58	10398	663.657913970718	12
58	10419	665.357988737939	16
58	10441	667.162385052518	17
58	10456	668.263053227463	10
58	10477	672.4	4
58	10482	672.8	3
58	10501	674.306625440549	14
58	10516	675.610894578073	12
58	10530	676.614486745592	9
58	10591	681.1	11
58	10631	684.2	30
58	10641	685.0089626135	7
58	10650	685.712486093942	6
58	10664	686.720453303655	9
58	10692	689.120525848731	23
58	10717	692.7	7
58	10729	693.8	10
58	10748	695.30902079825	14
58	10761	696.21347648258	8
58	10804	702.3	23
58	10834	705	26
58	10845	705.903632562032	8
58	10873	708.111919307505	21
58	10879	708.515960214516	3
58	10895	709.921822405667	13
58	10925	712.32709416174	23
58	10954	717.1	11
58	10972	718.6	14
58	11014	722.202126944195	35
58	11033	723.905131106459	16
58	11056	725.814008850253	18
58	11084	728.023576230742	21
58	11145	733.1	11
58	11190	735.1	19
58	11234	737.000622519073	18
58	11270	739.107839365627	20
58	11280	739.91257462226	7
58	11327	744.7	27
58	11335	745.4	6
58	11359	747.405015757381	19
58	11383	749.414378509099	19
58	11402	750.919288718259	14
58	11419	752.221421387217	12
58	11434	753.527595063262	12
58	11455	755.229632769045	16
58	11476	756.932124868034	16
58	11516	762	20
58	11539	764	19
58	11560	765.904440970837	18
58	11573	766.806829445626	8
58	11597	768.810927504101	19
58	11617	772.2	2
58	11628	773.2	9
58	11650	775.005142243166	17
58	11672	776.813361553704	17
58	11694	778.622408341572	17
58	11712	780.0287914771	13
58	11728	781.436411992613	13
58	11748	783.040843986648	15
58	11770	784.848500721687	17
58	11789	786.356259957847	14
58	11801	787.366215603693	9
58	11890	792.2	22
58	11920	793.6	13
58	11936	794.802477396468	11
58	11956	796.41052191592	15
58	11988	799.216075356443	27
58	12000	800.024562120094	7
58	12021	801.930587348238	18
58	12037	803.13488520501	11
58	12057	804.744841528728	15
58	12062	805.04910370148	2
58	12078	806.249153413641	11
58	12100	808.05365944974	17
58	12112	809.062926359808	9
58	12129	810.369891269912	12
58	12141	811.377177740416	9
58	12177	815.8	18
58	12196	817.4	15
58	12223	819.70173721672	22
58	12240	821.00240108197	12
58	12260	822.610190666079	15
58	12285	824.711380107238	20
58	12309	826.721191626366	19
58	12321	827.727795788978	9
58	12336	828.833176391147	10
58	12375	833.2	12
58	12383	833.9	6
58	12389	834.100822293648	1
58	12421	836.901901856317	27
58	12453	839.708945787878	27
58	12471	841.110024402032	13
58	12485	842.118451656526	9
58	12512	844.423734006934	22
58	12552	848.9	9
58	12562	849.8	8
58	12582	851.402664076171	15
58	12606	853.406892085009	19
58	12623	854.709232344176	12
58	12669	858.717364552081	39
58	12714	864.5	25
58	12738	866.6	20
58	12746	867.206790359548	5
58	12786	870.607960135786	33
58	12796	871.416611506678	7
58	12810	872.424835796917	9
58	12831	874.12579863408	16
58	12849	875.733282545601	15
58	12899	881	30
58	12906	881.6	5
58	12926	883.207148662654	15
58	12949	885.110578971842	18
58	12966	886.416845020746	12
58	12992	888.624759745116	21
58	13012	890.228287678375	15
58	13021	890.93796708323	6
58	13040	892.443101626156	14
58	13060	894.048647870832	15
58	13105	900.7	27
58	13126	902.5	17
58	13138	903.50180368473	9
58	13153	904.605481642342	10
58	13180	906.914233724562	22
58	13196	908.123349245363	11
58	13213	909.62818222312	14
58	13228	910.730647900455	10
58	13246	912.134405268627	13
58	13276	917.2	12
58	13311	920.2	29
58	13315	920.402834424825	1
58	13338	922.309787145412	18
58	13342	922.519543601541	1
58	13357	923.822093860151	12
58	13372	924.928773094306	10
58	13381	925.634054486376	6
58	13391	926.238627554964	5
58	13409	927.842507685426	15
58	13432	930.5	5
58	13440	931.2	6
58	13455	932.307654074789	10
58	13481	934.513688835669	21
58	13507	936.714646413854	21
58	13530	938.622014896582	18
58	13587	945.7	37
58	13599	946.6	8
58	13619	948.203690600623	15
58	13628	948.911429617078	6
58	13668	952.313140935035	33
58	13680	953.316173441366	9
58	13701	955.018574537141	16
58	13715	956.02056417976	9
58	13727	957.028482337926	9
58	13735	957.630883184153	5
58	13744	958.136457180947	4
58	13780	963.8	18
58	13799	965.4	15
58	13820	967.103222145461	16
58	13834	968.107544938611	9
58	13848	969.308451033997	11
58	13868	970.912703406436	15
58	13876	971.520777900556	5
58	13898	973.325714555207	17
58	13905	973.834773320754	4
58	13938	977.5	15
58	13951	978.5	9
58	13961	979.30372735603	7
58	13983	981.110168200849	17
58	13999	982.312070757615	11
58	14006	982.816912819373	4
58	14018	983.820493388592	9
58	14041	985.729125449819	18
58	14066	987.833417234566	20
58	14101	991.9	19
58	14111	992.6	6
58	14116	992.905668838052	2
58	14144	995.311352807667	23
58	14158	996.314261023313	9
58	14170	997.315146574475	9
58	14184	998.319485638674	9
58	14196	999.328236889707	9
58	14213	1000.628881946369	12
58	14244	1003.33536810198	26
58	14264	1006.2	2
58	14290	1008.5	22
58	14306	1009.902062944918	13
58	14326	1011.504490905051	15
58	14343	1012.806125948681	12
58	14351	1013.409177906902	5
58	14368	1014.716131956796	12
58	14386	1016.12368322859	13
58	14414	1021	10
58	14446	1023.9	28
58	14466	1025.504563101786	15
58	14479	1026.410645515159	8
58	14496	1027.920542995745	14
58	14525	1030.221016563122	22
58	14547	1032.029110762247	17
58	14578	1037.3	13
58	14594	1038.6	12
58	14618	1040.508159457994	18
58	14654	1043.708958672005	31
58	14663	1044.211238788556	4
58	14675	1045.216053659069	9
58	14711	1049.8	18
58	14729	1051.3	14
58	14744	1052.407566600239	10
58	14767	1054.315778349623	18
58	14783	1055.724624706102	13
58	14791	1056.130132423474	3
58	14800	1056.832706518596	6
58	14810	1057.637256326883	7
58	14825	1058.745057885961	10
58	14836	1059.650946751218	8
58	14855	1061.157687895914	14
58	14873	1062.56667127566	13
58	14888	1063.86995800755	12
58	14905	1065.17502887621	12
58	14952	1070.7	27
58	14982	1073.4	26
58	14988	1073.801473917015	3
58	15001	1074.709395388038	8
58	15019	1076.116668669554	13
58	15065	1080.117853273889	39
58	15085	1081.917858882234	17
58	15102	1083.224183173339	12
58	15121	1084.730483313697	14
58	15142	1086.431817926711	16
58	15157	1087.733373439458	12
58	15205	1092.8	28
58	15214	1093.6	7
58	15232	1095.004160034523	13
58	15243	1095.911984638156	8
58	15255	1096.713879087782	7
58	15273	1098.114490423468	13
58	15297	1100.121754284638	19
58	15329	1105.7	17
58	15343	1106.8	10
58	15371	1109.205544590698	23
58	15396	1111.314734095618	20
58	15412	1112.518985787566	11
58	15438	1114.722227891849	21
58	15457	1116.231255653672	14
58	15469	1117.234253852273	9
58	15487	1118.639308021293	13
58	15535	1123.4	14
58	15544	1124	5
58	15558	1125.20163665014	11
58	15611	1129.906214832651	46
58	15618	1130.215831697689	2
58	15626	1130.819029103183	5
58	15664	1134.026536603298	31
58	15679	1135.330150698002	12
58	15690	1136.037979879966	6
58	15708	1137.64457147265	15
58	15717	1138.154204595388	4
58	15726	1138.863172970901	6
58	15743	1140.163174996748	12
58	15756	1141.263296714457	10
58	15772	1142.463490314084	11
58	15801	1144.971718423907	24
58	15847	1150.6	26
58	15866	1152.2	15
58	15878	1153.209646528745	9
58	15899	1154.914914885542	16
58	15923	1156.920092530715	19
58	15943	1158.527453047415	15
58	15950	1159.03352052727	4
58	15973	1162.8	8
58	15990	1164.2	13
58	16000	1165.009460055846	7
58	16023	1166.919407895395	18
58	16031	1167.524835051706	5
58	16063	1170.133772999141	25
58	16073	1170.935479027297	7
58	16089	1172.138003860592	11
58	16104	1173.443072408864	12
58	16115	1174.152803707674	6
58	16150	1179.7	17
58	16167	1181.1	13
58	16185	1182.509577053331	13
58	16197	1183.512932638986	9
58	16214	1184.813606665501	12
58	16234	1186.421908609456	15
58	16251	1187.924607785519	14
58	16266	1189.029607302698	10
58	16274	1189.633717121298	5
58	16326	1195.2	32
58	16343	1196.6	13
58	16361	1198.009726517912	13
58	16370	1198.719055164853	6
58	16390	1200.32595925242	15
58	16400	1201.128489876927	7
58	16418	1202.530148621389	13
58	16454	1205.737139186243	31
58	16474	1207.337258332952	15
58	16489	1208.43990956249	10
58	16536	1212.547502969541	40
58	16616	1219.1	31
58	16620	1219.4	2
58	16626	1219.808341048706	3
58	16632	1220.015715630377	1
58	16640	1220.618105132443	5
58	16651	1221.524546784775	8
58	16671	1223.132156615825	15
58	16694	1225.036590379126	18
58	16723	1227.541652383814	24
58	16752	1231.1	11
58	16759	1231.7	5
58	16769	1232.303899655782	5
58	16778	1233.007651440731	6
58	16787	1233.714802099062	6
58	16799	1234.515246015748	7
58	16870	1239.4	14
58	16897	1240.5	10
58	16933	1242.009178574495	14
58	16959	1243.212244179474	11
58	16980	1244.919072716931	16
58	16992	1245.920839739927	9
58	17014	1247.724381646086	17
58	17062	1253.1	31
58	17077	1254.3	11
58	17088	1255.202704366391	8
58	17112	1257.207548033191	19
58	17132	1258.811804204817	15
58	17152	1260.413376362462	15
58	17161	1261.121453290414	6
58	17181	1264.2	2
58	17205	1266.3	20
58	17248	1270.007943718286	36
58	17260	1271.011604472225	9
58	17274	1272.016814165148	9
58	17316	1278.2	22
58	17327	1279.2	9
58	17336	1279.901997465975	6
58	17345	1280.409344184293	4
58	17372	1282.716577868991	22
58	17384	1283.726344137024	9
58	17413	1286.027935230906	22
58	17423	1286.837087021683	7
58	17436	1287.94440421535	10
58	17470	1290.751151991631	27
58	17537	1295.3	13
58	17602	1298.1	27
58	17629	1299.708885540408	15
58	17641	1300.516616154785	7
58	17656	1301.825827488232	12
58	17672	1303.030907866648	11
58	17680	1303.640474394534	5
58	17724	1308.7	27
58	17749	1310.9	21
58	17764	1312.008123481962	10
58	17779	1313.31496451941	12
58	17792	1314.221770207529	8
58	17817	1316.32224993618	20
58	17824	1316.824429045752	4
58	17848	1318.826799823636	19
58	17861	1319.930666480547	10
58	17873	1320.735218203631	7
58	17895	1324.4	4
58	17914	1326	15
58	17924	1326.806655006136	7
58	17931	1327.309533743501	4
58	17943	1328.11738764068	7
58	17950	1328.618713707745	4
58	17975	1330.718717348759	20
58	18000	1332.821107331218	20
58	18016	1334.02572464401	11
58	18027	1334.92746749922	8
58	18034	1335.427718139072	4
58	18055	1337.137018081359	16
58	18062	1337.640730409621	4
58	18087	1340.8	8
58	18106	1342.4	15
58	18115	1343.10287606412	6
58	18121	1343.507935217168	3
58	18139	1344.822855825249	12
58	18153	1345.934580942654	10
58	18167	1346.940962739543	9
58	18189	1348.743807589738	17
58	18202	1349.845253002115	10
58	18208	1350.045402375471	1
58	18229	1354.5	5
58	18233	1354.8	2
58	18246	1355.903504357277	10
58	18263	1357.204548413171	12
58	18282	1358.710318467069	14
58	18295	1359.818623260647	10
58	18316	1361.525747929356	16
58	18343	1364.9	9
58	18347	1365.2	2
58	18355	1365.802933575005	5
58	18366	1366.506473701977	6
58	18379	1367.613759787195	10
58	18392	1368.518767171453	8
58	18403	1369.422773866031	8
58	18415	1370.223181646691	7
58	18429	1371.424605652917	11
58	18444	1372.534141423989	10
58	18452	1373.142249560337	5
58	18476	1376.6	6
58	18494	1378.1	14
58	18511	1379.608596030243	14
58	18527	1380.817158209981	11
58	18544	1382.123923860228	12
58	18553	1382.8306747983	6
58	18561	1383.436210420853	5
58	18586	1385.540758946912	20
58	18606	1387.150095158418	15
58	18634	1391	10
58	18641	1391.6	5
58	18653	1392.405978027186	7
58	18662	1393.11505832602	6
58	18672	1393.91902027432	7
58	18681	1394.421865452487	4
58	18689	1395.02990081776	5
58	18719	1399.5	15
58	18731	1400.4	8
58	18756	1402.503349259949	20
58	18768	1403.506925577127	9
58	18781	1404.413088619405	8
58	18788	1404.91663955143	4
58	18815	1407.220472574322	22
58	18829	1408.228602655976	9
58	18840	1409.132717982238	8
58	18857	1410.439474303152	12
58	18873	1411.841567393413	13
58	18887	1412.851213393527	9
58	18904	1414.16046678396	12
58	18920	1415.56594091628	13
58	18938	1416.966744762789	13
58	18942	1417.174276725542	1
58	18977	1421.7	17
58	18980	1421.9	1
58	19009	1424.201289047293	22
58	19027	1425.808320011144	15
58	19044	1427.108722214197	12
58	19063	1428.614095210522	14
58	19085	1430.420399197107	17
58	19105	1432.023931583042	15
58	19129	1434.024771123476	19
58	19149	1435.834388861864	17
58	19182	1438.538283590393	26
58	19237	1442.8	8
58	19266	1444.1	12
58	19316	1446.208254758773	20
58	19332	1446.808905740677	5
58	19374	1448.610467987713	17
58	19404	1449.913177431591	12
58	19439	1451.61802046532	16
58	19464	1455	10
58	19471	1455.6	5
58	19491	1457.205615359821	15
58	19503	1458.006921812548	7
58	19509	1458.409417124121	3
58	19518	1459.110262590162	6
58	19540	1460.910759039839	17
58	19547	1461.414766681705	4
58	19572	1463.524560845946	20
58	19598	1466.8	8
58	19609	1467.8	9
58	19623	1468.803640547236	9
58	19647	1470.803756463308	19
58	19657	1471.610622207721	7
58	19672	1472.716762181614	10
58	19681	1473.418140512577	6
58	19701	1475.022176953933	15
58	19716	1476.129856407802	10
58	19725	1476.838983951875	6
58	19742	1478.139360401502	12
58	19765	1480.040149222814	18
58	19788	1484.5	5
58	19813	1486.7	21
58	19837	1488.706383080917	19
58	19870	1491.613048529784	28
58	19897	1493.918648421911	22
58	19926	1496.222194854009	22
58	19967	1502.1	21
58	19983	1503.6	14
58	20001	1505.000010660619	13
58	20019	1506.403635926477	13
58	20034	1507.706260160642	12
58	20047	1508.611066361003	8
58	20062	1509.918067131236	12
58	20092	1513.5	15
58	20117	1515.7	21
58	20135	1517.101782781817	13
58	20160	1519.208402258909	20
58	20196	1522.218213400479	29
58	20205	1522.920836454566	6
58	20224	1524.424936362857	14
58	20258	1529.6	16
58	20273	1530.8	11
58	20297	1532.8014227844	19
58	20323	1535.005261779417	21
58	20329	1535.409923693133	3
58	20344	1536.517412387172	10
58	20355	1537.419488431145	8
58	20379	1539.419665413174	19
58	20404	1541.52793195325	20
58	20430	1543.735708653505	21
58	20445	1544.83796268267	10
58	20472	1549.1	11
58	20512	1552.6	34
58	20524	1553.607276693768	9
58	20539	1554.712032918444	10
58	20556	1556.020991762739	12
58	20593	1559.323828436098	32
58	20617	1561.324472956081	19
58	20662	1566.5	25
58	20682	1568.2	16
58	20707	1570.303240300423	20
58	20717	1571.107177139752	7
58	20737	1572.715903704884	15
58	20750	1573.823443755766	10
58	20767	1575.128698336938	12
58	20814	1580.7	27
58	20837	1582.7	19
58	20848	1583.601186331342	8
58	20872	1585.601996070269	19
58	20896	1587.607334073545	19
58	20914	1589.013907547263	13
58	20937	1590.91935299519	18
58	20962	1593.028210910519	20
58	20988	1595.235706010782	21
58	21033	1600.5	25
58	21040	1601.1	5
58	21062	1602.909904110804	17
58	21077	1604.017492362183	10
58	21108	1606.719357397515	26
58	21112	1606.924616585132	1
58	21133	1608.632905380418	16
58	21161	1611.036067545543	23
58	21176	1612.141088971952	10
58	21195	1613.844210422581	16
58	21204	1614.347143168399	4
58	21225	1616.055639992748	16
58	21257	1621.5	15
58	21280	1623.5	19
58	21298	1624.903933169364	13
58	21316	1626.309183839109	13
58	21338	1628.11706742609	17
58	21347	1628.825523086358	6
58	21357	1629.630591908472	7
58	21399	1634.5	25
58	21407	1635.2	6
58	21425	1636.600057129978	13
58	21434	1637.302946726939	6
58	21454	1638.911020585455	15
58	21465	1639.812904217404	8
58	21483	1641.215869628894	13
58	21501	1642.619061105514	13
58	21522	1644.321952241179	16
58	21539	1645.830150124504	14
58	21552	1646.731024699903	8
58	21576	1650.6	6
58	21579	1650.8	1
58	21585	1651.207804372115	3
58	21598	1652.112274319415	8
58	21617	1653.814379527796	16
58	21635	1655.223848478879	13
58	21653	1656.633711003923	13
58	21658	1656.943273316259	2
58	21693	1661.7	17
58	21721	1664	22
58	21733	1665.009868369379	9
58	21757	1667.018476758622	19
58	21763	1667.427856845757	3
58	21784	1669.132227797241	16
58	21819	1672.034507276183	28
58	21835	1673.439908114296	13
58	21868	1677.5	15
58	21893	1679.7	21
58	21902	1680.208540227941	4
58	21913	1681.117249122317	8
58	21928	1682.22554515364	10
58	21945	1683.734326524765	14
58	21994	1688.9	29
58	22005	1689.9	9
58	22020	1691.006515967128	10
58	22036	1692.208291027095	11
58	22048	1693.21711900323	9
58	22066	1694.6252574362	13
58	22081	1695.929711039103	12
58	22102	1698.6	6
58	22106	1698.9	2
58	22122	1700.102227966303	11
58	22135	1701.20592314188	10
58	22143	1701.811998219577	5
58	22173	1704.219889920259	23
58	22200	1706.527940181699	22
58	22225	1708.63402964565	20
58	22318	1714.5	25
58	22339	1715.5	9
58	22376	1717.303573553839	17
58	22391	1718.408923553775	10
58	22407	1719.817903851181	13
58	22428	1721.522230098912	16
58	22445	1722.823342505419	12
58	22456	1723.733057191798	8
58	22469	1724.641771636474	8
58	22480	1725.543780610991	8
58	22491	1726.251948414995	6
58	22504	1727.353420438636	10
58	22526	1730.4	4
58	22537	1731.4	9
58	22554	1732.708437742665	12
58	22571	1734.016394187174	12
58	22577	1734.425378302134	3
58	22587	1735.230337084364	7
58	22615	1737.63034878455	23
58	22635	1739.233223500807	15
58	22652	1740.534804741187	12
58	22674	1742.335527294004	17
58	22691	1743.83605501229	14
58	22699	1744.244213849334	3
58	22722	1746.150596556458	18
58	22746	1750.8	8
58	22762	1752.1	12
58	22781	1753.808458228525	16
58	22798	1755.113843722002	12
58	22814	1756.322720500771	11
58	22825	1757.231588839022	8
58	22834	1757.937744591598	6
58	22875	1762.4	24
58	22883	1763.1	6
58	22900	1764.405614244388	12
58	22912	1765.413106841831	9
58	22919	1765.915276239478	4
58	22939	1767.522795602456	15
58	22948	1768.029921226746	4
58	22962	1769.232361854035	11
58	22997	1773.7	17
58	23012	1774.9	11
58	23039	1777.205816522829	22
58	23056	1778.512798028564	12
58	23084	1780.918110762726	23
58	23103	1782.419670421984	14
58	23138	1785.520080151327	30
58	23162	1788.6	6
58	23183	1790.4	17
58	23203	1792.009227977034	15
58	23218	1793.318424562453	12
58	23226	1793.923865218565	5
58	23247	1795.633799813224	16
58	23261	1796.637151195005	9
58	23283	1798.445869120001	17
58	23306	1800.354206247565	18
58	23352	1806.6	26
58	23371	1808.2	15
58	23402	1810.900834153161	26
58	23423	1812.601162955697	16
58	23432	1813.306353598757	6
58	23474	1816.914614844981	35
58	23483	1817.624137819821	6
58	23497	1818.632407096197	9
58	23544	1824.7	27
58	23553	1825.5	7
58	23559	1825.908208862983	3
58	23589	1828.309246661481	23
58	23600	1829.209502186148	8
58	23609	1829.9189408334	6
58	23633	1831.924235514521	19
58	23645	1832.73190568502	7
58	23654	1833.432473666241	6
58	23668	1834.437579187582	9
58	23677	1835.140413986138	6
58	23709	1839.6	16
58	23726	1841	13
58	23750	1843.006721334012	19
58	23778	1845.412736221376	23
58	23793	1846.521312149917	10
58	23817	1848.524942988911	19
58	23849	1853.4	14
58	23867	1854.9	14
58	23883	1856.101638204278	11
58	23895	1857.102211829102	9
58	23912	1858.402461469931	12
58	23925	1859.511347987603	10
58	23941	1860.716398366664	11
58	23979	1866.1	21
58	23992	1867.3	11
58	24021	1869.801596634679	24
58	24049	1872.002126732319	21
58	24100	1876.5	5
58	24119	1877.4	8
58	24149	1878.500467170227	10
58	24173	1879.507996211025	9
58	24232	1882.717565868914	31
58	24242	1883.52261461145	7
58	24257	1884.623145098741	10
58	24304	1888.731384898285	40
58	24332	1893	10
58	24359	1895.4	23
58	24377	1896.807098473075	13
58	24397	1898.414081157829	15
58	24445	1904.8	28
58	24461	1906.1	12
58	24488	1908.404072597399	22
58	24504	1909.8048890667	13
58	24525	1911.506911714797	16
58	24553	1915	10
58	24561	1915.7	6
58	24574	1916.602677268693	8
58	24584	1917.409801097195	7
58	24598	1918.410248572776	9
58	24610	1919.412141794523	9
58	24636	1921.617072615151	21
58	24667	1925.6	16
58	24685	1927.1	14
58	24695	1927.906806746507	7
58	24709	1928.911590949566	9
58	24726	1930.219447589003	12
58	24760	1933.227765851214	29
58	24777	1934.536848999592	12
58	24793	1935.945764735454	13
58	24817	1937.948933033923	19
58	24833	1939.153800003061	11
58	24842	1939.854388825104	6
58	24854	1940.660513671385	7
58	24872	1942.065780487458	13
58	24904	1947.5	15
58	24913	1948.1	5
58	24921	1948.706201147262	5
58	24931	1949.511784248325	7
58	24946	1950.6189590165	10
58	24957	1951.521485515998	8
58	24963	1951.928580037499	3
58	24982	1953.430177805385	14
58	25002	1955.030757539489	15
58	25016	1956.034928793143	9
58	25028	1957.042478510878	9
58	25059	1961.3	13
58	25078	1962.9	15
58	25098	1964.509921430633	15
58	25119	1966.217055267176	16
58	25128	1966.917074176132	6
58	25136	1967.522716582138	5
58	25171	1970.424658700108	28
58	25196	1974.7	7
58	25213	1976.1	13
58	25228	1977.400785609837	12
58	25242	1978.407411466824	9
58	25259	1979.913622775185	14
58	25268	1980.421485011985	4
58	25285	1981.924351000189	14
58	25298	1982.833345503505	8
58	25314	1984.035076336011	11
58	25327	1985.143163398567	10
58	25345	1986.549014632736	13
58	25360	1987.849195737688	12
58	25384	1990.8	8
58	25391	1991.4	5
58	25410	1992.909354428977	14
58	25429	1994.412656888579	14
58	25449	1996.01649503752	15
58	25469	1997.825830562334	17
58	25482	1998.730767571498	8
58	25496	1999.93363966895	11
58	25511	2001.04345420882	10
58	25522	2001.946380447739	8
58	25538	2003.154078517838	11
58	25558	2004.757700362736	15
58	25578	2006.3612853317	15
58	25607	2011.1	11
58	25625	2012.6	14
58	25644	2014.10311980443	14
58	25657	2015.205672709764	10
58	25670	2016.108882820519	8