file 270698 1367233090                                          
version 2
run Join-87-20130429-12:57:41-17679
attr configname Join
attr datetime 20130429-12:57:41
attr experiment "\"Join\""
attr inifile omnetpp.ini
attr iterationvars $0=8192
attr iterationvars2 "$0=8192, $repetition=7"
attr measurement $0=8192
attr network Network
attr processid 17679
attr repetition 7
attr replication #7
attr resultdir results
attr runnumber 87
attr seedset 87

vector 87  Network.dyn_peer[0]  lookupHopsSig:vector  ETV
87	444 270254 22230 537403 24.51666150913 41106.52931620273 9296 1 165 371913 20878725
