file 227873 1367232608                                          
version 2
run Join-32-20130429-12:50:06-17679
attr configname Join
attr datetime 20130429-12:50:06
attr experiment "\"Join\""
attr inifile omnetpp.ini
attr iterationvars $0=256
attr iterationvars2 "$0=256, $repetition=2"
attr measurement $0=256
attr network Network
attr processid 17679
attr repetition 2
attr replication #2
attr resultdir results
attr runnumber 32
attr seedset 32

vector 32  Network.dyn_peer[0]  lookupHopsSig:vector  ETV
32	441 227432 976 109968 20.931920028437 10159.819072578937 8575 0 27 62983 602637
