version 2
run Join-45-20130429-12:50:37-17679
attr configname Join
attr datetime 20130429-12:50:37
attr experiment "\"Join\""
attr inifile omnetpp.ini
attr iterationvars $0=512
attr iterationvars2 "$0=512, $repetition=5"
attr measurement $0=512
attr network Network
attr processid 17679
attr repetition 5
attr replication #5
attr resultdir results
attr runnumber 45
attr seedset 45

vector 45  Network.dyn_peer[0]  lookupHopsSig:vector  ETV
45	1745	20.515307514962	11
45	1758	21.623015507286	10
45	1790	25.4	14
45	1809	27	15
45	1820	27.907004228697	8
45	1831	28.607405841803	6
45	1840	29.307507651467	6
45	1851	30.011631687451	6
45	1859	30.613099805412	5
45	1900	36.4	24
45	1921	38.2	17
45	1933	39.200975106228	9
45	1952	40.703382801683	14
45	1961	41.409988249032	6
45	1986	43.517428757591	20
45	2016	47.2	12
45	2033	48.6	13
45	2047	49.809995826776	11
45	2057	50.418340412431	5
45	2068	51.319938415488	8
45	2083	52.428109825263	10
45	2094	53.336754082697	8
45	2106	54.142303982879	7
45	2121	55.44988775211	12
45	2139	56.852212871309	13
45	2172	61.5	15
45	2183	62.3	7
45	2197	63.508198248359	11
45	2213	64.713164521785	11
45	2232	66.214323769529	14
45	2259	68.515294331452	22
45	2275	69.918896186845	13
45	2289	70.920215983362	9
45	2300	71.824286310366	8
45	2333	74.531673555698	26
45	2408	79.6	16
45	2453	81.6	19
45	2478	83.302425794657	16
45	2503	85.4110202551	20
45	2515	86.215187353742	7
45	2541	88.419044155952	21
45	2555	89.621279758879	11
45	2592	94	20
45	2606	95.3	12
45	2628	97.107249898656	17
45	2652	99.108155671275	19
45	2667	100.209991043639	10
45	2684	101.710075414628	14
45	2707	103.610401320478	18
45	2735	107	10
45	2744	107.8	7
45	2763	109.303449383988	14
45	2775	110.1055666068	7
45	2781	110.514512327277	3
45	2840	114.9	9
45	2861	115.8	8
45	2923	118.403586483513	25
45	2945	119.407704567926	9
45	2962	120.015252462844	5
45	2993	125.3	13
45	3004	126.1	7
45	3017	127.208093328129	10
45	3033	128.417986656229	11
45	3046	129.522576904724	10
45	3061	130.62381172275	10
45	3072	131.526613504449	8
45	3086	132.533594307224	9
45	3095	133.236734415634	6
45	3103	133.842178152463	5
45	3120	135.146667650531	12
45	3161	140.1	21
45	3169	140.8	6
45	3186	142.103833777031	12
45	3202	143.513158351433	13
45	3211	144.014417439672	4
45	3226	145.320007708883	12
45	3239	146.22707010121	8
45	3261	150.4	4
45	3277	151.9	14
45	3306	154.207956734921	22
45	3316	155.012141401036	7
45	3322	155.421904821313	3
45	3343	157.129989672027	16
45	3359	158.332018334142	11
45	3400	164.1	21
45	3419	165.9	17
45	3427	166.304105832881	3
45	3442	167.608702832713	12
45	3455	168.513621998679	8
45	3466	169.420830983461	8
45	3477	170.124495179927	6
45	3515	175	10
45	3523	175.7	6
45	3527	175.905174151086	1
45	3541	176.908856615782	9
45	3565	178.912227996193	19
45	3588	180.816477626579	18
45	3599	181.724270950817	8
45	3611	182.531787082434	7
45	3631	184.13684292939	15
45	3668	189.9	19
45	3687	191.5	15
45	3708	193.204141298281	16
45	3725	194.507305406236	12
45	3737	195.507476034634	9
45	3747	196.115260825989	5
45	3754	196.619083024839	4
45	3769	197.920565435181	12
45	3788	199.421140535206	14
45	3805	200.726439470583	12
45	3810	201.034552865137	2
45	3814	201.237243707817	1
45	3840	204.8	8
45	3857	206.2	13
45	3876	207.906546015189	16
45	3887	208.609198275824	6
45	3898	209.517153926946	8
45	3910	210.323233331742	7
45	3924	211.530452004391	11
45	3945	213.235593169817	16
45	3971	217	10
45	3979	217.7	6
45	4011	220.304180744865	25
45	4020	221.012705124003	6
45	4031	221.915109633022	8
45	4040	222.420851664797	4
45	4051	223.328729137734	8
45	4059	223.929284083738	5
45	4066	224.236172985657	2
45	4075	224.944024319051	6
45	4090	226.045841333985	10
45	4113	230.6	6
45	4139	232.9	22
45	4151	233.90186188128	9
45	4164	234.803875203332	8
45	4175	235.706654934872	8
45	4188	236.607423291144	8
45	4207	238.114189297825	14
45	4222	239.414404131845	12
45	4246	242.6	6
45	4265	244.2	15
45	4276	245.10855963367	8
45	4285	245.813341114536	6
45	4301	247.017171395266	11
45	4312	247.927161344458	8
45	4353	252.1	21
45	4367	253.4	12
45	4386	254.908932419689	14
45	4403	256.212182075897	12
45	4420	257.714032744594	14
45	4435	258.819907072394	10
45	4446	259.720626008678	8
45	4455	260.224188739922	4
45	4465	261.02943529511	7
45	4475	261.833714280004	7
45	4495	263.437106861133	15
45	4508	264.337605584481	8
45	4533	268.8	8
45	4539	269.3	4
45	4552	270.201481828351	8
45	4559	270.706349898473	4
45	4564	271.00811752463	2
45	4573	271.711688486356	6
45	4596	273.617503437213	18
45	4606	274.22233165481	5
45	4615	274.927991744141	6
45	4621	275.32818373523	3
45	4720	281.3	33
45	4730	282	6
45	4743	283.103596911269	10
45	4762	284.607578922397	14
45	4775	285.713426215984	10
45	4792	287.016155318673	12
45	4812	290.2	2
45	4826	291.5	12
45	4832	291.901497370323	3
45	4843	292.611153784817	6
45	4849	293.012056788081	3
45	4860	293.912660725354	8
45	4873	294.820059989474	8
45	4878	295.125852552132	2
45	4904	297.326814681523	21
45	4909	297.635996443825	2
45	4920	298.244620320687	5
45	4926	298.648075709826	3
45	4939	299.753478809172	10
45	4980	304.1	21
45	4996	305.6	14
45	5011	306.700223516758	10
45	5036	308.809072945293	20
45	5048	309.814244291077	9
45	5071	312.5	5
45	5089	314	14
45	5096	314.502218658686	4
45	5107	315.403025876173	8
45	5120	316.304510780785	8
45	5125	316.605685188831	2
45	5154	319.109486953837	24
45	5160	319.51347211762	3
45	5219	322.9	9
45	5236	323.7	7
45	5270	325.805547736338	20
45	5281	326.508919314951	6
45	5296	327.817263183844	12
45	5308	328.62305828258	7
45	5323	329.929152427586	12
45	5340	331.233893040844	12
45	5356	332.442643697191	11
45	5367	333.347224100945	8
45	5389	336.6	6
45	5403	337.9	12
45	5415	338.706764685241	7
45	5428	339.814156017144	10
45	5449	341.52381376104	16
45	5460	342.232946749118	6
45	5466	342.640376290481	3
45	5476	343.441802147591	7
45	5482	343.84227660291	3
45	5494	344.650448185788	7
45	5509	345.95807752226	12
45	5519	346.559699415278	5
45	5526	347.065145501985	4
45	5541	348.169178670415	10
45	5552	349.07101326467	8
45	5573	350.776688227003	16
45	5601	355	10
45	5628	357.4	23
45	5633	357.707670620859	2
45	5653	359.307914993744	15
45	5679	361.514846795478	21
45	5689	362.11828722244	5
45	5712	364.019935448031	18
45	5746	369.6	16
45	5765	371.2	15
45	5782	372.509487269562	12
45	5797	373.810948051132	12
45	5810	374.72080991618	8
45	5833	378.5	5
45	5847	379.8	12
45	5856	380.309353412839	4
45	5865	381.013526901188	6
45	5882	382.319164231263	12
45	5895	383.420864794412	10
45	5907	384.226330609286	7
45	5919	385.232795549097	9
45	5935	386.436469504708	11
45	5950	387.740522212987	12
45	5984	391.8	18
45	5997	392.8	9
45	6008	393.700423228188	8
45	6021	394.606082226828	8
45	6032	395.511672481601	8
45	6051	397.014635275574	14
45	6060	397.717569142558	6
45	6081	399.421385673215	16
45	6093	400.226210594328	7
45	6116	402.128879100172	18
45	6128	403.130830757605	9
45	6146	404.539364504484	13
45	6175	409.1	11
45	6182	409.7	5
45	6195	410.604951001196	8
45	6204	411.311176367192	6
45	6219	412.419164120654	10
45	6228	413.126413936804	6
45	6237	413.827579048416	6
45	6250	414.732912952532	8
45	6260	415.536676748443	7
45	6272	416.33810609531	7
45	6296	418.344052500006	19
45	6337	424.1	21
45	6348	425.1	9
45	6367	426.603934202159	14
45	6382	427.905507874819	12
45	6397	429.013261957377	10
45	6421	432.6	6
45	6429	433.3	6
45	6454	435.400905847342	20
45	6475	437.104437674719	16
45	6495	438.706426878817	15
45	6501	439.107504125548	3
45	6520	440.609606255349	14
45	6540	442.20964492931	15
45	6551	443.115180845958	8
45	6614	447.2	12
45	6629	447.8	5
45	6671	449.607940066023	17
45	6703	450.808500852595	11
45	6737	452.218252265295	13
45	6771	453.727632100728	14
45	6821	455.835684987759	20
45	6862	459.5	15
45	6878	460.8	12
45	6889	461.704023695448	8
45	6904	462.808848548349	10
45	6913	463.510062832011	6
45	6926	464.41357337724	8
45	6939	465.515699061067	10
45	6964	467.616059586277	20
45	6998	471.6	16
45	7002	471.9	2
45	7015	472.805009078911	8
45	7020	473.112995127219	2
45	7034	474.122240741495	9
45	7039	474.426653577412	2
45	7051	475.430121578531	9
45	7056	475.732665669649	2
45	7065	476.234123364438	4
45	7104	482.1	21
45	7115	483.1	9
45	7125	483.903316186196	7
45	7131	484.107929013457	1
45	7140	484.812756853072	6
45	7157	486.119360816402	12
45	7167	486.925627737024	7
45	7204	492	20
45	7217	493.2	11
45	7237	494.802300764706	15
45	7244	495.305293178611	4
45	7263	496.807723569964	14
45	7274	497.708453547492	8
45	7286	498.515620825894	7
45	7308	500.323252052227	17
45	7316	500.930971770647	5
45	7342	503.131963272413	21
45	7361	506.1	1
45	7384	508.1	19
45	7398	509.30038016672	11
45	7423	511.402281510676	20
45	7434	512.103717722613	6
45	7442	512.712349896353	5
45	7467	514.815853214383	20
45	7480	515.918858180414	10
45	7503	517.823700964255	18
45	7525	519.630971653854	17
45	7544	521.135275016658	14
45	7586	526.2	22
45	7601	527.6	13
45	7612	528.300398765048	6
45	7624	529.306558606633	9
45	7637	530.216202890471	8
45	7653	531.620580249969	13
45	7669	532.829663456601	11
45	7688	534.331638582525	14
45	7697	535.039403996972	6
45	7716	536.54899353268	14
45	7728	537.557565683858	9
45	7733	537.863774773909	2
45	7764	541.4	14
45	7769	541.8	3
45	7778	542.307154633719	4
45	7790	543.31060723242	9
45	7795	543.612143523258	2
45	7810	544.718517109125	10
45	7831	546.419453331187	16
45	7837	546.823376510466	3
45	7853	548.033126543924	11
45	7863	548.835147251534	7
45	7873	549.642533825992	7
45	7890	550.942582284419	12
45	7894	551.148777043302	1
45	7924	555.2	12
45	7949	557.4	21
45	7962	558.304773447099	8
45	7974	559.308974088355	9
45	7992	560.710689411271	13
45	8010	562.11571037641	13
45	8043	567.5	15
45	8053	568.2	6
45	8068	569.508386455925	12
45	8080	570.311726138956	7
45	8108	572.714621619729	23
45	8117	573.421056187208	6
45	8130	574.322839420995	8
45	8176	580.6	26
45	8200	582.7	20
45	8225	584.800265960434	20
45	8246	586.502456369601	16
45	8280	591.6	16
45	8292	592.5	8
45	8303	593.409776057624	8
45	8314	594.11646041853	6
45	8330	595.521067474066	13
45	8347	596.830648346199	12
45	8354	597.331316894374	4
45	8386	601.4	14
45	8398	602.3	8
45	8424	604.500192118745	21
45	8439	605.808919705119	12
45	8447	606.217580931239	3
45	8454	606.719631371303	4
45	8461	607.221302981037	4
45	8470	607.928108652094	6
45	8485	609.03548385309	10
45	8525	614	20
45	8543	615.7	16
45	8567	617.705665363636	19
45	8591	619.713991432147	19
45	8612	621.419749333666	16
45	8628	622.625230920562	11
45	8643	623.930729886652	12
45	8654	624.635286819529	6
45	8672	626.038485735006	13
45	8692	627.844711047719	17
45	8717	630.7	7
45	8727	631.6	8
45	8751	633.604021707295	19
45	8770	635.109799831012	14
45	8788	636.514251237286	13
45	8798	637.314748284993	7
45	8817	638.820293599988	14
45	8833	640.02958852507	11
45	8844	640.932347811977	8
45	8862	642.339170049221	13
45	8873	643.244912082079	8
45	8898	646.8	8
45	8901	647	1
45	8911	647.803910608724	7
45	8932	649.507936445504	16
45	8938	649.910185664306	3
45	8949	650.618222652171	6
45	8962	651.725596970531	10
45	8973	652.433594822489	6
45	8985	653.443401787265	9
45	8990	653.747610383576	2
45	9001	654.450634827913	6
45	9007	654.8574290358	3
45	9016	655.561267064714	6
45	9038	658.4	4
45	9049	659.4	9
45	9061	660.208527006723	7
45	9088	662.518434124602	22
45	9100	663.520606854121	9
45	9113	664.428451283451	8
45	9142	666.936102165128	24
45	9165	670.5	5
45	9170	670.9	3
45	9185	672.007785198888	10
45	9202	673.514634354684	14
45	9221	675.017621238489	14
45	9228	675.524309786275	4
45	9245	676.825634193754	12
45	9258	677.927077701797	10
45	9274	679.129814881942	11
45	9290	680.333744137395	11
45	9300	681.140798539017	7
45	9328	685	10
45	9344	686.3	12
45	9360	687.709898045717	13
45	9378	689.116201926069	13
45	9388	689.925985211981	7
45	9395	690.228659865385	2
45	9408	691.330130169309	10
45	9424	692.532631904598	11
45	9465	698.1	21
45	9471	698.6	4
45	9494	700.503402994063	18
45	9504	701.307809460777	7
45	9512	701.917609967062	5
45	9530	703.319853313023	13
45	9606	707.8	18
45	9616	708.5	6
45	9631	709.805320258687	12
45	9639	710.208516374394	3
45	9659	714.2	2
45	9683	716.3	20
45	9695	717.304360869377	9
45	9709	718.307473300615	9
45	9724	719.614939535007	12
45	9738	720.618366679463	9
45	9782	726.4	24
45	9793	727.4	9
45	9807	728.402279094895	9
45	9818	729.305661309379	8
45	9842	731.310432749857	19
45	9855	732.215907475616	8
45	9865	733.018312047939	7
45	9892	737.2	12
45	9909	738.6	13
45	9916	739.108267150348	4
45	9937	740.81212480804	16
45	9957	742.42081850158	15
45	9979	744.226165290793	17
45	9996	745.726516333393	14
45	10018	747.534946913612	17
45	10023	747.837547548147	2
45	10048	750.7	7
45	10064	752	12
45	10069	752.307560555783	2
45	10080	753.208772371983	8
45	10086	753.610115538988	3
45	10111	755.716324277998	20
45	10124	756.623190656335	8
45	10129	756.925552626797	2
45	10169	762	20
45	10193	764.1	20
45	10216	766.009661900771	18
45	10230	767.211723076984	11
45	10239	767.913848898376	6
45	10249	768.514991815949	5
45	10265	769.920794105513	13
45	10277	770.729393180761	7
45	10288	771.631437175665	8
45	10315	775.1	11
45	10329	776.2	10
45	10360	778.903312997922	26
45	10379	780.407652821942	14
45	10390	781.31493976587	8
45	10418	783.716909479964	23
45	10430	784.524583634789	7
45	10456	786.724857376361	21
45	10479	788.625927110713	18
45	10489	789.435702641543	7
45	10500	790.137655879142	6
45	10534	793.138139576347	29
45	10564	797.2	12
45	10571	797.8	5
45	10583	798.606644697235	7
45	10592	799.314816935308	6
45	10605	800.223529834706	8
45	10617	801.228825482435	9
45	10626	801.937404490266	6
45	10637	802.639909339774	6
45	10658	804.344676204389	16
45	10666	804.946641646679	5
45	10694	809.1	11
45	10697	809.3	1
45	10702	809.602204547557	2
45	10707	809.902773911603	2
45	10714	810.207594405714	2
45	10726	811.217429762085	9
45	10738	812.019642901521	7
45	10770	817.4	14
45	10784	818.5	10
45	10796	819.501969359053	9
45	10808	820.310037626434	7
45	10813	820.612213982726	2
45	10828	821.916633385648	12
45	10840	822.721031700067	7
45	10857	824.024347567888	12
45	10878	825.932803556815	18
45	10890	826.738338904854	7
45	10903	827.846232327996	10
45	10952	832.9	29
45	10966	834	10
45	10996	836.60404211485	25
45	11009	837.71265767818	10
45	11026	839.018391257255	12
45	11051	841.119340186576	20
45	11093	846.2	22
45	11102	847	7
45	11116	848.009316728606	9
45	11132	849.417620939162	13
45	11147	850.527361227179	10
45	11167	852.132740430131	15
45	11190	854.033648279206	18
45	11224	859.6	16
45	11234	860.3	6
45	11247	861.407804753279	10
45	11260	862.317371750752	8
45	11267	862.817910392625	4
45	11280	863.922364722225	10
45	11292	864.723204481566	7
45	11323	867.428391030544	26
45	11346	869.335411201947	18
45	11366	870.94513768174	15
45	11389	872.847302983126	18
45	11401	873.854494763298	9
45	11416	874.961604956388	10
45	11424	875.567500599156	5
45	11483	878.7	7
45	11506	879.7	9
45	11530	880.605144703078	8
45	11564	882.305978542309	16
45	11576	883.311313867465	9
45	11592	884.512074633988	11
45	11603	885.412862222674	8
45	11624	888.6	6
45	11637	889.8	11
45	11651	890.801372771814	9
45	11673	892.604519432791	17
45	11691	894.012632232525	13
45	11699	894.620158735008	5
45	11703	894.828742739229	1
45	11712	895.535296428414	6
45	11728	896.744679348139	11
45	11776	901.6	16
45	11785	902.2	5
45	11790	902.500718844172	2
45	11796	902.909321186134	3
45	11807	903.814556692136	8
45	11822	904.92216267833	10
45	11837	906.029569318385	10
45	11865	911.3	13
45	11876	912.1	7
45	11889	913.204126750631	10
45	11908	914.71257160555	14
45	11918	915.517901347639	7
45	11929	916.223207487779	6
45	11939	917.029292207123	7
45	11972	921.8	18
45	11978	922.1	2
45	11983	922.402417149383	2
45	12015	925.207883232405	27
45	12023	925.811023250372	5
45	12050	928.9	9
45	12068	930.4	14
45	12083	931.703390705122	12
45	12099	932.906282180549	11
45	12118	934.410533842555	14
45	12148	939.2	12
45	12161	940.2	9
45	12178	941.7035414007	14
45	12189	942.412666150461	6
45	12204	943.715452060156	12
45	12230	945.919015637311	21
45	12248	947.320333040657	13
45	12277	951.4	14
45	12294	952.8	13
45	12305	953.706671704733	8
45	12321	954.909640410271	11
45	12329	955.512418212477	5
45	12342	956.419566841959	8
45	12356	957.621549474662	11
45	12371	958.724568938447	10
45	12390	960.232300960986	14
45	12402	961.23422225786	9
45	12423	962.944178774516	16
45	12442	966.3	3
45	12458	967.8	14
45	12474	969.009208546411	11
45	12491	970.3142075636	12
45	12504	971.421026405523	10
45	12519	972.529693664995	10
45	12530	973.434440071252	8
45	12547	974.735479599693	12
45	12571	978.6	6
45	12595	980.7	20
45	12606	981.60900177343	8
45	12614	982.014298675248	3
45	12640	984.218682064934	21
45	12668	986.621912003802	23
45	12680	987.628210767346	9
45	12699	989.135456349052	14
45	12714	990.24009342904	10
45	12728	991.440735464401	11
45	12797	996	20
45	12824	998.4	23
45	12846	1000.201989540096	17
45	12860	1001.404194571016	11
45	12887	1004.9	9
45	12897	1005.8	8
45	12907	1006.409435421749	5
45	12915	1007.017252938492	5
45	12926	1007.92668556816	8
45	12938	1008.727984210271	7
45	12955	1010.029513768185	12
45	12960	1010.333749305248	2
45	12991	1015.3	13
45	13008	1016.7	13
45	13019	1017.608511955775	8
45	13033	1018.610880308174	9
45	13045	1019.614214586158	9
45	13057	1020.421241538029	7
45	13070	1021.524549820411	10
45	13096	1025.1	11
45	13104	1025.8	6
45	13113	1026.307525616902	4
45	13122	1027.011340829109	6
45	13133	1027.912728064761	8
45	13146	1028.819276504667	8
45	13156	1029.62363327571	7
45	13179	1032.8	8
45	13191	1033.9	10
45	13211	1035.50223234588	15
45	13222	1036.204651622692	6
45	13240	1037.812863391899	15
45	13250	1038.417203121083	5
45	13278	1043	10
45	13304	1045.3	22
45	13342	1048.506339656584	31
45	13357	1049.809629865031	12
45	13368	1050.519619709156	6
45	13391	1052.419798271393	18
45	13399	1053.022770827498	5
45	13405	1053.428806682412	3
45	13428	1055.336546269097	18
45	13486	1059.1	11
45	13501	1060.3	11
45	13525	1062.302874030105	19
45	13549	1064.304374030935	19
45	13574	1066.410103353694	20
45	13586	1067.41403778487	9
45	13592	1067.823406313803	3
45	13604	1068.63216336231	7
45	13624	1070.238679143316	15
45	13657	1075.5	15
45	13669	1076.4	8
45	13678	1077.102582767596	6
45	13693	1078.211600794328	10
45	13707	1079.421232715457	11
45	13742	1082.324766996678	28
45	13750	1082.928290949669	5
45	13772	1084.733122393091	17
45	13811	1089.1	11
45	13826	1090.3	11
45	13835	1091.009770448901	6
45	13854	1092.516536751433	14
45	13874	1094.121365455146	15
45	13894	1095.922179356174	17
45	13907	1096.831620735615	8
45	13924	1098.134620856827	12
45	13968	1104.4	24
45	13984	1105.9	14
45	13994	1106.507338785522	5
45	14013	1108.007809361223	14
45	14021	1108.617450782944	5
45	14034	1109.724240813451	10
45	14042	1110.125583915058	3
45	14068	1114.8	8
45	14083	1116	11
45	14104	1117.904236328762	18
45	14123	1119.405205365351	14
45	14144	1121.106409437592	16
45	14161	1122.408025980669	12
45	14182	1124.114389569471	16
45	14203	1128.6	6
45	14211	1129.3	6
45	14217	1129.704182044537	3
45	14231	1130.616343764116	8
45	14240	1131.318941399627	6
45	14257	1132.621609441854	12
45	14283	1136.8	8
45	14300	1138.2	13
45	14322	1140.005154226585	17
45	14338	1141.411752638939	13
45	14352	1142.419032834781	9
45	14368	1143.825071950753	13
45	14383	1144.932053192579	10
45	14391	1145.537510721862	5
45	14413	1147.340305817037	17
45	14424	1148.044883992714	6
45	14438	1149.252393980301	11
45	14444	1149.659919531077	3
45	14459	1150.765488604888	10
45	14486	1154.9	9
45	14503	1156.3	13
45	14510	1156.806357760746	4
45	14518	1157.413204657435	5
45	14523	1157.720438617341	2
45	14542	1159.226491300404	14
45	14561	1160.734301936711	14
45	14601	1165.4	14
45	14616	1166.6	11
45	14626	1167.400507798765	7
45	14636	1168.005079121905	5
45	14641	1168.305937664859	2
45	14665	1170.31411839702	19
45	14687	1172.117738413713	17
45	14702	1173.423764655909	12
45	14717	1174.524321153189	10
45	14730	1175.628465013664	10
45	14750	1177.234923494846	15
45	14767	1178.542060239486	12
45	14810	1184.4	24
45	14817	1185	5
45	14833	1186.203885031139	11
45	14842	1186.907558672112	6
45	14854	1187.916868284838	9
45	14872	1189.324413326878	13
45	14887	1190.425562979771	10
45	14902	1191.732991401419	12
45	14942	1196	20
45	14962	1197.9	18
45	14981	1199.401566518202	14
45	14993	1200.205781595168	7
45	15026	1205.5	15
45	15037	1206.3	7
45	15048	1207.205177385264	8
45	15070	1209.012720502255	17
45	15079	1209.716742936541	6
45	15090	1210.426715751537	6
45	15106	1211.833166547953	13
45	15123	1213.139709101002	12
45	15151	1215.547143918761	23
45	15224	1220.1	21
45	15232	1220.8	6
45	15241	1221.505598533076	6
45	15251	1222.114092441086	5
45	15258	1222.615730878295	4
45	15269	1223.518792852194	8
45	15279	1224.12656748835	5
45	15304	1226.232525843449	20
45	15309	1226.534782636509	2
45	15351	1230.3	3
45	15364	1231.5	11
45	15375	1232.201507619174	6
45	15380	1232.510201243245	2
45	15388	1233.118340683883	5
45	15397	1233.818972346839	6
45	15411	1234.820532614381	9
45	15422	1235.722973457746	8
45	15450	1239	10
45	15471	1240.8	17
45	15482	1241.705306911419	8
45	15516	1244.511747201713	27
45	15535	1246.018639871009	14
45	15545	1246.82210605044	7
45	15572	1249.123580256554	22
45	15624	1255.2	32
45	15641	1256.6	13
45	15654	1257.705544618167	10
45	15665	1258.407178879214	6
45	15682	1259.912204550222	14
45	15696	1260.914220630148	9
45	15721	1263.02141314914	20
45	15741	1264.62160674338	15
45	15751	1265.428843681355	7
45	15770	1266.937142343834	14
45	15786	1268.139617948903	11
45	15805	1269.841249607168	16
45	15835	1273.2	12
45	15851	1274.5	12
45	15863	1275.503799996287	9
45	15878	1276.612006743095	10
45	15897	1278.117481320194	14
45	15911	1279.326665582569	11
45	15924	1280.228978501209	8
45	15939	1281.530824766317	12
45	15971	1285.4	14
45	15987	1286.7	12
45	15998	1287.605652656815	8
45	16013	1288.707907059806	10
45	16033	1290.310885490722	15
45	16056	1292.213676094625	18
45	16068	1293.219071180653	9
45	16098	1297.5	15
45	16110	1298.4	8
45	16118	1299.009460932181	5
45	16134	1300.210154120423	11
45	16157	1302.117835834432	18
45	16163	1302.5278334031	3
45	16184	1304.235399838956	16
45	16194	1305.043715656315	7
45	16209	1306.151558281634	10
45	16229	1310.4	4
45	16243	1311.7	12
45	16253	1312.300463529443	5
45	16262	1313.005843129348	6
45	16273	1313.906279500777	8
45	16284	1314.611654735769	6
45	16295	1315.520577251215	8
45	16309	1316.521336502253	9
45	16349	1322	20
45	16364	1323.4	13
45	16382	1324.809880533572	13
45	16398	1326.018697709103	11
45	16424	1328.224660972577	21
45	16443	1329.932690052961	16
45	16453	1330.537153357998	5
45	16483	1335.5	15
45	16498	1336.7	11
45	16517	1338.207173831448	14
45	16525	1338.808465006334	5
45	16539	1339.913947642225	10
45	16556	1341.222645700276	12
45	16571	1342.329301063262	10
45	16584	1343.437714318169	10
45	16603	1344.94169711985	14
45	16614	1345.845413261955	8
45	16646	1349.5	15
45	16650	1349.8	2
45	16660	1350.403470139105	5
45	16668	1351.00808282158	5
45	16673	1351.31430878016	2
45	16687	1352.322570988231	9
45	16699	1353.322995044984	9
45	16704	1353.623721614837	2
45	16716	1354.424228288196	7
45	16722	1354.829000773613	3
45	16735	1355.931669863503	10
45	16763	1359	10
45	16768	1359.4	3
45	16783	1360.502899736792	10
45	16802	1362.006689293177	14
45	16813	1362.915747411478	8
45	16824	1363.815854529988	8
45	16832	1364.220595726015	3
45	16846	1365.42496929842	11
45	16871	1368.7	7
45	16880	1369.5	7
45	16894	1370.506823215153	9
45	16908	1371.709657973462	11
45	16925	1373.01397230757	12
45	16944	1374.519984893236	14
45	16957	1375.624858688449	10
45	16972	1376.731368143134	10
45	16994	1378.532494629034	17
45	17014	1380.133480528275	15
45	17053	1386	20
45	17060	1386.6	5
45	17074	1387.804723574363	11
45	17108	1390.612456044896	27
45	17130	1392.413161020608	17
45	17146	1393.819374409097	13
45	17162	1395.024854913603	11
45	17179	1396.327149015665	12
45	17191	1397.333640747433	9
45	17205	1398.343459193994	9
45	17211	1398.748020212327	3
45	17257	1404.6	26
45	17266	1405.4	7
45	17286	1407.002505757922	15
45	17297	1407.911234926827	8
45	17306	1408.411849728923	4
45	17317	1409.315985498381	8
45	17325	1409.924750939904	5
45	17348	1412.8	8
45	17358	1413.7	8
45	17367	1414.20905644305	4
45	17390	1416.116243214858	18
45	17400	1416.916319077661	7
45	17411	1417.822067739252	8
45	17428	1419.122383828278	12
45	17449	1420.829678541769	16
45	17468	1422.338327822447	14
45	17490	1426.4	4
45	17495	1426.8	3
45	17502	1427.300022081062	4
45	17509	1427.808119985575	4
45	17537	1430.015500875734	21
45	17548	1430.920047283767	8
45	17560	1431.927044440278	9
45	17576	1433.136817945566	11
45	17584	1433.744037530743	5
45	17599	1434.853172799737	10
45	17607	1435.454640778595	5
45	17692	1440.1	21
45	17707	1441.5	13
45	17721	1442.500010027221	9
45	17734	1443.608546382346	10
45	17753	1445.113049213207	14
45	17761	1445.717986478333	5
45	17769	1446.12177551279	3
45	17778	1446.83140727548	6
45	17786	1447.439851098052	5
45	17807	1449.146099494654	16
45	17817	1449.949712492299	7
45	17835	1451.35640599419	13
45	17854	1452.865501268644	14
45	17873	1454.36661054472	14
45	17902	1459.2	12
45	17918	1460.5	12
45	17939	1462.200724267067	16
45	17954	1463.509401282422	12
45	17971	1464.816870595506	12
45	17976	1465.119719161994	2
45	17990	1466.122244103382	9
45	18001	1467.03199640832	8
45	18012	1467.938914380491	8
45	18028	1469.139606983611	11
45	18055	1471.441577279402	22
45	18086	1475.3	13
45	18106	1477	16
45	18121	1478.108000097591	10
45	18141	1479.911094603477	17
45	18152	1480.614386675487	6
45	18162	1481.422892001821	7
45	18185	1483.32305208706	18
45	18198	1484.229066005416	8
45	18214	1485.630773681417	13
45	18242	1489.2	12
45	18247	1489.6	3
45	18256	1490.103644044741	4
45	18264	1490.704957265196	5
45	18277	1491.811873076174	10
45	18289	1492.617366931915	7
45	18313	1494.624007334382	19
45	18325	1495.629195014132	9
45	18340	1496.731558833446	10
45	18364	1500.6	6
45	18374	1501.5	8
45	18390	1502.702743157686	11
45	18407	1504.007901379409	12
45	18419	1505.01586960303	9
45	18435	1506.216005973528	11
45	18479	1512.4	24
45	18495	1513.9	14
45	18507	1514.707081292755	7
45	18519	1515.712606142858	9
45	18544	1517.817833139722	20
45	18557	1518.721599110281	8
45	18577	1520.326363605104	15
45	18594	1521.827278751145	14
45	18607	1522.72812858674	8
45	18624	1524.028173565468	12
45	18644	1525.837900221556	17
45	18655	1526.539374570011	6
45	18685	1531.2	12
45	18700	1532.4	11
45	18715	1533.703229800797	12
45	18733	1535.112162645828	13
45	18751	1536.516917794953	13
45	18767	1537.926515598775	13
45	18787	1539.529877970982	15
45	18803	1540.731439646826	11
45	18836	1545.7	17
45	18846	1546.4	6
45	18869	1548.306692822631	18
45	18890	1550.012227281718	16
45	18899	1550.721350586297	6
45	18918	1552.226142016143	14
45	18934	1553.630072022461	13
45	18965	1557.3	13
45	18987	1559.2	18
45	19005	1560.602416159007	13
45	19017	1561.603597832179	9
45	19035	1563.008446843627	13
45	19060	1565.116566895719	20
45	19078	1566.517516223057	13
45	19100	1570.7	7
45	19106	1571.102655399104	3
45	19123	1572.403382336548	12
45	19128	1572.711824638051	2
45	19149	1574.412085345831	16
45	19166	1575.915691164716	14
45	19174	1576.319204316828	3
45	19178	1576.520670352659	1
45	19192	1577.723834059682	11
45	19207	1578.82561388657	10
45	19211	1579.029719649732	1
45	19245	1583.8	18
45	19258	1584.8	9
45	19265	1585.308539006616	4
45	19280	1586.41628690028	10
45	19309	1588.921022495398	24
45	19342	1593.5	15
45	19356	1594.6	10
45	19369	1595.707271228597	10
45	19393	1597.7075575227	19
45	19411	1599.108334655092	13
45	19433	1600.913003580734	17
45	19451	1602.32105655974	13
45	19467	1603.721297119294	13
45	19484	1605.021304514756	12
45	19517	1609.7	17
45	19534	1611.1	13
45	19550	1612.300907051234	11
45	19559	1613.001433993383	6
45	19577	1614.402881094832	13
45	19599	1616.212538522148	17
45	19610	1617.121786773851	8
45	19633	1619.029761463397	18
45	19718	1624.1	21
45	19746	1625.3	11
45	19760	1625.801327743905	4
45	19787	1626.903177608074	10
45	19799	1627.909758213178	9
45	19815	1629.118533512842	11
45	19832	1630.423767056257	12
45	19843	1631.327021398175	8
45	19856	1632.229008428082	8
45	19885	1637.1	11
45	19893	1637.8	6
45	19915	1639.603255859662	17
45	19931	1640.804590466015	11
45	19937	1641.207974920535	3
45	19959	1643.014027307749	17
45	19991	1647.4	14
45	20005	1648.5	10
45	20017	1649.501599234666	9
45	20030	1650.403732303485	8
45	20043	1651.507762274636	10
45	20059	1652.711107134466	11
45	20072	1653.811536316679	10
45	20086	1654.812814801303	9
45	20094	1655.41842652223	5
45	20107	1656.325921103592	8
45	20135	1661	10
45	20143	1661.7	6
45	20164	1663.402222680987	16
45	20175	1664.110886752013	6
45	20183	1664.716486482418	5
45	20200	1666.025181882046	12
45	20215	1667.331888012185	12
45	20233	1668.732390816411	13
45	20241	1669.337856473507	5
45	20248	1669.838036158244	4
45	20257	1670.34427246416	4
45	20261	1670.552894401957	1
45	20268	1671.061922879199	4
45	20296	1675.1	11
45	20304	1675.8	6
45	20315	1676.506925350488	6
45	20327	1677.51331173374	9
45	20345	1678.920456480138	13
45	20365	1682.2	2
45	20381	1683.7	14
45	20390	1684.20777340213	4
45	20409	1685.908803378813	16
45	20424	1687.012395293723	10
45	20440	1688.217894124061	11
45	20457	1689.719044420901	14
45	20488	1693.3	13
45	20507	1694.9	15
45	20526	1696.407304510748	14
45	20543	1697.907709483889	14
45	20560	1699.215652852412	12
45	20572	1700.021220229088	7
45	20584	1701.02161214148	9
45	20595	1701.93143644935	8
45	20607	1702.732757595214	7
45	20659	1706.6	6
45	20714	1708.9	22
45	20734	1709.801352166023	8
45	20763	1711.010748235941	11
45	20778	1712.117496342315	10
45	20794	1713.522935914181	13
45	20809	1714.623548907344	10
45	20822	1715.731529236233	10
45	20835	1716.632776038832	8
45	20858	1718.535416747931	18
45	20870	1719.539671688981	9
45	20914	1724.4	24
45	20920	1724.9	4
45	20941	1726.605264394055	16
45	20972	1729.305464259057	26
45	20983	1730.013951996927	6
45	20989	1730.419653160843	3
45	20996	1730.922792716916	4
45	21003	1731.431939071528	4
45	21015	1732.240188308162	7
45	21026	1733.147443349873	8
45	21052	1737	10
45	21072	1738.7	16
45	21090	1740.106186541998	13
45	21102	1741.112885920949	9
45	21117	1742.22013596685	10
45	21136	1743.928831676993	16
45	21156	1745.531587279574	15
45	21189	1749.5	15
45	21205	1750.8	12
45	21212	1751.306487216975	4
45	21227	1752.414734724576	10
45	21233	1752.824128030328	3