file 210187 1369149731                                          
version 2
run Join-22-20130429-12:49:46-17679
attr configname Join
attr datetime 20130429-12:49:46
attr experiment "\"Join\""
attr inifile omnetpp.ini
attr iterationvars $0=128
attr iterationvars2 "$0=128, $repetition=2"
attr measurement $0=128
attr network Network
attr processid 17679
attr repetition 2
attr replication #2
attr resultdir results
attr runnumber 22
attr seedset 22
vector 22  Network.dyn_peer[0]  lookupHopsSig:vector  ETV
22	441 209746 648 82145 20.514088015863 7758.463991583529 8070 0 15 39706 250946
