file 267470 1367232790                                          
version 2
run Join-73-20130429-12:52:59-17679
attr configname Join
attr datetime 20130429-12:52:59
attr experiment "\"Join\""
attr inifile omnetpp.ini
attr iterationvars $0=4096
attr iterationvars2 "$0=4096, $repetition=3"
attr measurement $0=4096
attr network Network
attr processid 17679
attr repetition 3
attr replication #3
attr resultdir results
attr runnumber 73
attr seedset 73

vector 73  Network.dyn_peer[0]  lookupHopsSig:vector  ETV
73	444 267026 11433 355981 21.008432157608 28817.653093852984 9278 0 134 249132 8904148
