file 214140 1369149732                                          
version 2
run Join-23-20130429-12:49:48-17679
attr configname Join
attr datetime 20130429-12:49:48
attr experiment "\"Join\""
attr inifile omnetpp.ini
attr iterationvars $0=128
attr iterationvars2 "$0=128, $repetition=3"
attr measurement $0=128
attr network Network
attr processid 17679
attr repetition 3
attr replication #3
attr resultdir results
attr runnumber 23
attr seedset 23
vector 23  Network.dyn_peer[0]  lookupHopsSig:vector  ETV
23	441 213699 569 80504 20.510977639895 7585.310246882351 8218 0 16 37810 219290
