file 262410 1369149732                                          
version 2
run Join-62-20130429-12:51:38-17679
attr configname Join
attr datetime 20130429-12:51:38
attr experiment "\"Join\""
attr inifile omnetpp.ini
attr iterationvars $0=2048
attr iterationvars2 "$0=2048, $repetition=2"
attr measurement $0=2048
attr network Network
attr processid 17679
attr repetition 2
attr replication #2
attr resultdir results
attr runnumber 62
attr seedset 62
vector 62  Network.dyn_peer[0]  lookupHopsSig:vector  ETV
62	444 261966 5878 253851 21.8 21173.739182204622 9224 0 76 173320 4293018
