file 247708 1367232679                                          
version 2
run Join-57-20130429-12:51:16-17679
attr configname Join
attr datetime 20130429-12:51:16
attr experiment "\"Join\""
attr inifile omnetpp.ini
attr iterationvars $0=1024
attr iterationvars2 "$0=1024, $repetition=7"
attr measurement $0=1024
attr network Network
attr processid 17679
attr repetition 7
attr replication #7
attr resultdir results
attr runnumber 57
attr seedset 57

vector 57  Network.dyn_peer[0]  lookupHopsSig:vector  ETV
57	444 247264 3115 176067 20.709871422061 15411.627532993839 8908 0 50 115623 1917119
