version 2
run Join-36-20130429-12:50:14-17679
attr configname Join
attr datetime 20130429-12:50:14
attr experiment "\"Join\""
attr inifile omnetpp.ini
attr iterationvars $0=256
attr iterationvars2 "$0=256, $repetition=6"
attr measurement $0=256
attr network Network
attr processid 17679
attr repetition 6
attr replication #6
attr resultdir results
attr runnumber 36
attr seedset 36

vector 36  Network.dyn_peer[0]  lookupHopsSig:vector  ETV
36	963	22.7	7
36	972	23.5	7
36	985	24.401342764301	8
36	992	24.907758358025	4
36	1000	25.514966800156	5
36	1015	26.618545851552	10
36	1028	27.723675049343	10
36	1041	28.630121576376	8
36	1048	29.135462181858	4
36	1057	29.83973880299	6
36	1068	30.546504649106	6
36	1075	31.048461368184	4
36	1090	32.052506721598	9
36	1116	36.8	8
36	1132	38.1	12
36	1147	39.407562520888	12
36	1159	40.215729581066	7
36	1168	40.925715581732	6
36	1175	41.433545743892	4
36	1186	42.134307919497	6
36	1211	46.7	7
36	1228	48.1	13
36	1237	48.800745693969	6
36	1253	50.004140480027	11
36	1265	51.009142035533	9
36	1275	51.816392685417	7
36	1291	53.018952326001	11
36	1326	57.7	17
36	1335	58.3	5
36	1352	59.801422397536	14
36	1364	60.607628433673	7
36	1372	61.215177274589	5
36	1388	62.416716575252	11
36	1408	66.2	2
36	1422	67.5	12
36	1438	68.707013015223	11
36	1457	70.209529149264	14
36	1463	70.615916411491	3
36	1481	72.021534601415	13
36	1518	77.9	19
36	1537	79.5	15
36	1550	80.408744028448	8
36	1560	81.209934504786	7
36	1573	82.117246457433	8
36	1588	83.425418605445	12
36	1604	84.626847089502	11
36	1614	85.429596577948	7
36	1633	86.935482686848	14
36	1655	88.737710413803	17
36	1666	89.642175459433	8
36	1713	92.3	3
36	1722	92.7	3
36	1752	93.903717488052	11
36	1770	94.605831115461	6
36	1788	95.709788718173	10
36	1797	96.216989466746	4
36	1814	97.724020632498	14
36	1821	98.032105436736	2
36	1841	102.4	4
36	1852	103.4	9
36	1863	104.101295957053	6
36	1874	105.007180874985	8
36	1894	106.611944018408	15
36	1908	107.818734011523	11
36	1920	108.626313734688	7
36	1939	110.133718867169	14
36	1965	115	10
36	1970	115.4	3
36	1984	116.408870913356	9
36	1993	117.1106825242	6
36	2019	120.8	8
36	2031	121.9	10
36	2045	122.901450764567	9
36	2055	123.706754869022	7
36	2065	124.306776915853	5
36	2079	125.510816375703	11
36	2090	126.215282454086	6
36	2101	127.119078628381	8
36	2110	127.821338548101	6
36	2145	131.9	19
36	2159	133	10
36	2173	134.007541013131	9
36	2186	135.114107799459	10
36	2195	135.823610698041	6
36	2206	136.527273645266	6
36	2235	141.1	11
36	2242	141.7	5
36	2258	142.90479100822	11
36	2266	143.509740976875	5
36	2284	144.913306333054	13
36	2292	145.518991423229	5
36	2302	146.12372462234	5
36	2319	147.630776051599	14
36	2327	148.037596388305	3
36	2348	152.3	3
36	2359	153.3	9
36	2371	154.107937314384	7
36	2375	154.316442665985	1
36	2393	155.923962478734	15
36	2413	157.530969776167	15
36	2426	158.434344904721	8
36	2434	159.035113111599	5
36	2458	162.6	6
36	2461	162.8	1
36	2466	163.002786719477	1
36	2470	163.212359241733	1
36	2476	163.618240828683	3
36	2492	164.822109662277	11
36	2504	165.826483573442	9
36	2518	166.734561012485	8
36	2526	167.340916649121	5
36	2537	168.047607154295	6
36	2550	169.150155319905	10
36	2578	173	10
36	2594	174.3	12
36	2616	176.100487677694	17
36	2629	177.202039282058	10
36	2642	178.107642427684	8
36	2654	179.112061354048	9
36	2669	180.214767688287	10
36	2686	184.2	2
36	2690	184.5	2
36	2700	185.30594585611	7
36	2707	185.807652911369	4
36	2720	186.712951366875	8
36	2725	187.020970400487	2
36	2734	187.721715857872	6
36	2756	190.4	4
36	2766	191.3	8
36	2777	192.001003779403	6
36	2785	192.609404053908	5
36	2792	193.109687693751	4
36	2801	193.817871975147	6
36	2823	196.4	4
36	2832	197.2	7
36	2844	198.001042073941	7
36	2850	198.405280994332	3
36	2861	199.312696143858	8
36	2875	200.320242997807	9
36	2885	201.122762691684	7
36	2898	202.03147246191	8
36	2906	202.636140073644	5
36	2936	207.2	12
36	2941	207.6	3
36	2959	209.00759583614	13
36	2967	209.610744114608	5
36	2985	211.010906150384	13
36	2991	211.412097250871	3
36	3004	212.315385972357	8
36	3033	217.1	11
36	3041	217.8	6
36	3057	219.008842988996	11
36	3068	219.913846987024	8
36	3085	221.217404309468	12
36	3090	221.52685265682	2
36	3094	221.735058479835	1
36	3114	224.2	2
36	3126	225.3	10
36	3131	225.604819416962	2
36	3140	226.109957361439	4
36	3149	226.817658924307	6
36	3155	227.220053108332	3
36	3216	230.8	8
36	3237	232.1	12
36	3244	232.600130833708	4
36	3259	233.908052418927	12
36	3275	235.11409504952	11
36	3279	235.320113080438	1
36	3286	235.822308726639	4
36	3303	237.12426156392	12
36	3308	237.431007985986	2
36	3324	238.636472566096	11
36	3337	239.745325679789	10
36	3346	240.252823506317	4
36	3354	240.853259213713	5
36	3370	242.060007308728	11
36	3377	242.563303334034	4
36	3381	242.767806017651	1
36	3386	243.070824234316	2
36	3415	247.2	12
36	3432	248.6	13
36	3440	249.203777635465	5
36	3457	250.5124384668	12
36	3470	251.618537742371	10
36	3481	252.328164012572	6
36	3498	253.834341448254	14
36	3518	255.440008938719	15
36	3525	255.947958749836	4
36	3534	256.454767801778	4
36	3550	257.856925735988	13
36	3568	259.259017080215	13
36	3595	263	10
36	3601	263.5	4
36	3619	264.908003134827	13
36	3626	265.413402086546	4
36	3637	266.116878025786	6
36	3658	270.3	3
36	3663	270.7	3
36	3668	271.00238976333	2
36	3678	271.802516057462	7
36	3690	272.603261906631	7
36	3700	273.411082362617	7
36	3718	274.819162244806	13
36	3723	275.121543542267	2
36	3743	278.4	4
36	3755	279.5	10
36	3771	280.703903048196	11
36	3779	281.304745620979	5
36	3792	282.207032226406	8
36	3800	282.811836316448	5
36	3819	284.321611623167	14
36	3828	285.023079878621	6
36	3835	285.529308587781	4
36	3846	286.237850781805	6
36	3850	286.441807836268	1
36	3890	292	20
36	3893	292.2	1
36	3911	293.807281908923	15
36	3929	295.12224529123	12
36	3937	295.727542065093	5
36	3945	296.129026893258	3
36	3958	297.238102970877	10
36	3973	298.338111980018	10
36	4000	302.9	9
36	4003	303.1	1
36	4016	304.002705512214	8
36	4024	304.508504881385	4
36	4032	305.1101549914	5
36	4047	306.215059726032	10
36	4054	306.717603877327	4
36	4059	306.927310903843	1
36	4064	307.23403881005	2
36	4070	307.542110445103	2
36	4088	308.943102590173	13
36	4098	309.752506581737	7
36	4121	312.5	5
36	4125	312.8	2
36	4136	313.700975220063	8
36	4148	314.505421026204	7
36	4152	314.713389059439	1
36	4177	318.7	7
36	4183	319.2	4
36	4195	320.007955320223	7
36	4209	321.209211767561	11
36	4213	321.413504601261	1
36	4227	322.420415116197	9
36	4240	323.525349053591	10
36	4258	326.3	3
36	4267	327.1	7
36	4282	328.207829803857	10
36	4294	329.212587808736	9
36	4301	329.715263712238	4
36	4311	330.320270535598	5
36	4322	331.227850265974	8
36	4334	332.031771887231	7
36	4343	332.738015642082	6
36	4367	336.7	7
36	4374	337.3	5
36	4385	338.009328592387	6
36	4396	338.913653001135	8
36	4414	340.318708223648	13
36	4430	341.726662882115	13
36	4445	342.835139447779	10
36	4452	343.339203675154	4
36	4465	344.2461974161	8
36	4489	348.6	6
36	4501	349.7	10
36	4519	351.107163055243	13
36	4533	352.107719024177	9
36	4544	353.016566950096	8
36	4551	353.525570572897	4
36	4578	356.9	9
36	4585	357.5	5
36	4591	357.901291547033	3
36	4602	358.603912316155	6
36	4607	358.904109859798	2
36	4614	359.410825419908	4
36	4630	360.612539577274	11
36	4650	362.215517364777	15
36	4677	366.9	9
36	4691	368	10
36	4697	368.406663591989	3
36	4711	369.612028587394	11
36	4725	370.621033956218	9
36	4739	371.821946368236	11
36	4752	372.725660188081	8
36	4756	372.932159451972	1
36	4762	373.340053283166	3
36	4773	374.042870355268	6
36	4795	378.4	4
36	4803	379.1	6
36	4822	380.60018008392	14
36	4834	381.609467394423	9
36	4847	382.513923997302	8
36	4875	387	10
36	4889	388.1	10
36	4897	388.704012049536	5
36	4915	390.105237120549	13
36	4925	390.90846977389	7
36	4933	391.515047351902	5
36	4939	391.915351337143	3
36	4962	394.5	5
36	4971	395.3	7
36	4983	396.108848628941	7
36	4991	396.711039918066	5
36	4998	397.212620405697	4
36	5002	397.416921180349	1
36	5028	400.8	8
36	5043	402	11
36	5049	402.407303197216	3
36	5058	403.111543111658	6
36	5091	407.5	15
36	5112	409.3	17
36	5133	411.003543101849	16
36	5141	411.609040075153	5
36	5164	413.512629789934	18
36	5185	415.220635081697	16
36	5197	416.0227464205	7
36	5216	417.726231139658	16
36	5231	418.827062377156	10
36	5252	420.527196454731	16
36	5285	425.7	17
36	5294	426.3	5
36	5300	426.701448926446	3
36	5311	427.603430711671	8
36	5322	428.308832739053	6
36	5330	428.914557152047	5
36	5349	430.420525907619	14
36	5356	430.926763636743	4
36	5366	431.729779954595	7
36	5393	434.9	9
36	5407	436	10
36	5422	437.305375726583	12
36	5435	438.206755439687	8
36	5442	438.710944878923	4
36	5461	440.215383622672	14
36	5475	441.417939746237	11
36	5482	441.926398905619	4
36	5491	442.432577448697	4
36	5501	443.233925284831	7
36	5507	443.635532830561	3
36	5522	444.742285054068	10
36	5550	449.1	11
36	5557	449.7	5
36	5579	451.502670446408	17
36	5588	452.012227103698	4
36	5606	453.621214642673	15
36	5624	455.028355839444	13
36	5644	456.635970055508	15
36	5653	457.336208039196	6
36	5659	457.737750269076	3
36	5680	460.3	3
36	5686	460.8	4
36	5693	461.30761433481	4
36	5700	461.811834173547	4
36	5711	462.514325707694	6
36	5726	463.822130591258	12
36	5733	464.126420616811	2
36	5755	468.7	7
36	5761	469.2	4
36	5767	469.607036565898	3
36	5776	470.116737571786	4
36	5786	470.922218327237	7
36	5801	472.022429849343	10
36	5810	472.722851532905	6
36	5824	473.927619363051	11
36	5855	477.3	13
36	5861	477.8	4
36	5875	478.803379440223	9
36	5881	479.205237188419	3
36	5888	479.715142532049	4
36	5906	481.116518747922	13
36	5924	482.517832688639	13
36	5936	483.526450774577	9
36	5954	484.933233890964	13
36	5979	488.9	9
36	5995	490.2	12
36	6008	491.30352747353	10
36	6025	492.612256207482	12
36	6032	493.117360839242	4
36	6047	494.219686758451	10
36	6058	495.126712493319	8
36	6065	495.62803978882	4
36	6082	496.932199523655	12
36	6091	497.634342608618	6
36	6107	498.840959963838	11
36	6114	499.346626615829	4
36	6120	499.756524117586	3
36	6136	500.96313647621	11
36	6158	504.5	5
36	6170	505.6	10
36	6179	506.100613785502	4
36	6188	506.808151880432	6
36	6193	507.11346187201	2
36	6221	509.516656379163	23
36	6245	512.6	6
36	6259	513.9	12
36	6276	515.200562610656	12
36	6293	516.507643142584	12
36	6305	517.508396815682	9
36	6323	518.909951934298	13
36	6333	519.718037546519	7
36	6347	520.720866701714	9
36	6359	521.727791385426	9
36	6370	522.432442928665	6
36	6382	523.441501493699	9
36	6394	524.251042087604	7
36	6433	530	20
36	6437	530.3	2
36	6446	531.004541731323	6
36	6450	531.206224250311	1
36	6456	531.61228419274	3
36	6461	531.915701673518	2
36	6474	532.818822839679	8
36	6500	537.1	11
36	6509	537.9	7
36	6519	538.506749457633	5
36	6524	538.815724144533	2
36	6536	539.822654863748	9
36	6551	540.924554441232	10
36	6562	541.831769777073	8
36	6576	542.834218263435	9
36	6587	543.737019808096	8
36	6602	544.843931981901	10
36	6618	546.048074212836	11
36	6629	546.954847768925	8
36	6651	550.4	4
36	6659	551.1	6
36	6668	551.802901174374	6
36	6675	552.108440681827	2
36	6686	553.013919185023	8
36	6694	553.619818339396	5
36	6706	554.422498000517	7
36	6718	555.422611759364	9
36	6730	556.225962755489	7
36	6754	560.6	6
36	6760	561.1	4
36	6774	562.102253253215	9
36	6781	562.611405601789	4
36	6788	563.120917391347	4
36	6798	563.929389130755	7
36	6807	564.433753712466	4
36	6818	565.24199406035	7
36	6826	565.847230248432	5
36	6842	567.054899207311	11
36	6846	567.258148443681	1
36	6869	570.6	6
36	6877	571.3	6
36	6888	572.008508298662	6
36	6897	572.7129829419	6
36	6904	573.220369130237	4
36	6910	573.625597011324	3
36	6927	574.92742590697	12
36	6950	578.8	8
36	6956	579.3	4
36	6971	580.40504061874	10
36	6984	581.510002338448	10
36	6998	582.515098471312	9
36	7005	583.02430517647	4
36	7014	583.728535007294	6
36	7026	584.529876213553	7
36	7051	588.7	7
36	7056	589.1	3
36	7061	589.401892131667	2
36	7074	590.308778061019	8
36	7082	590.914551298196	5
36	7090	591.51695099413	5
36	7101	592.218787528209	6
36	7106	592.521588831953	2
36	7117	593.424430361717	8
36	7122	593.731633705108	2
36	7131	594.232303520424	4
36	7139	594.838456203636	5
36	7164	598.7	7
36	7168	599	2
36	7172	599.209830011329	1
36	7185	600.114238874094	8
36	7191	600.516372440048	3
36	7200	601.221811360195	6
36	7218	602.62984344586	13
36	7223	602.936842017231	2
36	7235	603.94112325589	9
36	7257	606.4	4
36	7268	607.4	9
36	7288	609.004117245888	15
36	7303	610.113019762453	10
36	7312	610.820688903559	6
36	7329	612.123616052282	12
36	7334	612.431200121082	2
36	7349	613.7335128441	12
36	7358	614.233866727548	4
36	7365	614.740117755516	4
36	7395	619.2	12
36	7412	620.6	13
36	7430	622.009254623148	13
36	7440	622.811331617386	7
36	7450	623.614154741173	7
36	7469	625.123160970306	14
36	7487	626.523940459796	13
36	7512	631	10
36	7529	632.4	13
36	7546	633.904856552393	14
36	7565	635.407170111217	14
36	7577	636.214462198362	7
36	7585	636.817820650679	5
36	7602	638.118615115454	12
36	7610	638.723137945385	5
36	7615	639.028034477905	2
36	7632	640.33414191372	12
36	7661	645.1	11
36	7667	645.6	4
36	7684	646.909822219079	12
36	7690	647.314555511478	3
36	7714	649.322685703326	19
36	7727	650.231877567309	8
36	7738	651.132156936712	8
36	7746	651.736011648671	5
36	7761	652.838383591428	10
36	7774	653.943505919141	10
36	7785	654.648484553143	6
36	7825	660.1	21
36	7831	660.6	4
36	7841	661.408687457093	7
36	7857	662.611824378375	11
36	7862	662.919111628203	2
36	7870	663.521254419413	5
36	7884	664.530696131953	9
36	7891	665.036640063722	4
36	7898	665.538102368088	4
36	7911	666.44653213269	8
36	7946	671.7	17
36	7956	672.4	6
36	7962	672.807113070667	3
36	7974	673.816905109495	9
36	7982	674.223838655149	3
36	7991	674.929517568244	6
36	8007	676.137535298428	11
36	8032	681	10
36	8042	681.9	8
36	8051	682.407895228001	4
36	8059	683.015965042037	5
36	8064	683.323118590157	2
36	8080	684.526865905878	11
36	8135	688.6	6
36	8150	689.2	5
36	8186	691.102635141084	18
36	8192	691.508589969669	3
36	8206	692.51141029356	9
36	8211	692.814937397487	2
36	8221	693.619108561862	7
36	8231	694.228898106343	5
36	8236	694.535376214471	2
36	8241	694.843563303055	2
36	8254	695.952091895757	10
36	8289	699.7	17
36	8298	700.3	5
36	8306	700.908128477891	5
36	8313	701.411335834972	4
36	8323	702.013462046665	5
36	8331	702.621171292567	5
36	8338	703.121363612352	4
36	8358	706.5	5
36	8363	706.9	3
36	8374	707.8051858869	8
36	8382	708.21150486562	3
36	8387	708.514119571056	2
36	8393	708.915898488061	3
36	8405	709.91946601078	9
36	8412	710.223160333007	2
36	8425	711.326195775633	10
36	8438	712.228653791904	8
36	8445	712.735770507534	4
36	8471	716.8	8
36	8482	717.8	9
36	8496	718.80843754555	9
36	8504	719.415250896295	5
36	8519	720.524632741674	10
36	8529	721.3301873566	7
36	8541	722.135218202727	7
36	8567	727.1	11
36	8571	727.4	2
36	8587	728.600204794881	11
36	8601	729.801138554221	11
36	8612	730.507066507566	6
36	8625	731.615088799698	10
36	8641	732.820992856113	11
36	8657	734.021499693748	11
36	8662	734.322570947381	2
36	8666	734.529757291937	1
36	8681	735.838822309942	12
36	8705	738.6	6
36	8717	739.7	10
36	8734	741.000689564037	12
36	8740	741.408065628304	3
36	8746	741.808168352187	3
36	8760	742.813222145788	9
36	8765	743.116104969147	2
36	8786	746.3	3
36	8793	746.9	5
36	8798	747.204759552651	2
36	8807	747.908960906991	6
36	8815	748.318941785818	3
36	8820	748.622229277891	2
36	8833	749.725294842146	10
36	8862	753.4	14
36	8872	754.1	6
36	8876	754.30879354912	1
36	8882	754.718437671646	3
36	8892	755.521698968749	7
36	8904	756.325169035616	7
36	8910	756.72707438112	3
36	8930	758.334384788148	15
36	8956	763	10
36	8966	763.9	8
36	8979	764.800933446991	8
36	8986	765.307648724454	4
36	8999	766.2085211265	8
36	9006	766.708576202819	4
36	9023	768.008808021429	12
36	9062	774.2	22
36	9068	774.7	4
36	9076	775.309880304131	5
36	9084	775.918320548086	5
36	9102	777.31966977052	13
36	9118	778.522470514446	11
36	9128	779.327836876744	7
36	9163	783.7	17
36	9176	784.7	9
36	9186	785.507315863545	7
36	9197	786.213204619306	6
36	9210	787.319355608461	10
36	9224	788.326493523333	9
36	9238	789.533262755009	11
36	9260	792.7	7
36	9269	793.5	7
36	9290	795.20585560492	16
36	9297	795.715828982363	4
36	9308	796.41644345886	6
36	9324	797.824962712243	13
36	9332	798.227336334246	3
36	9340	798.830582535415	5
36	9345	799.133972314716	2
36	9352	799.637962321509	4
36	9361	800.147726775061	4
36	9377	801.548295911175	13
36	9400	804.5	5
36	9406	805	4
36	9421	806.106696302292	10
36	9434	807.213202178515	10
36	9439	807.519315466663	2
36	9455	808.7248361157	11
36	9462	809.229395307838	4
36	9467	809.536398808055	2
36	9477	810.142621023387	5
36	9497	814.2	2
36	9505	814.9	6
36	9513	815.503084535633	5
36	9525	816.311209750843	7
36	9541	817.71529204938	13
36	9549	818.122713474311	3
36	9556	818.627934970586	4
36	9566	819.431635648187	7
36	9577	820.1368642883	6
36	9590	821.243015119454	10
36	9599	821.952246991879	6
36	9613	822.960329219262	9
36	9639	827	10
36	9644	827.4	3
36	9654	828.009208007086	5
36	9658	828.214354230362	1
36	9663	828.517931091155	2
36	9679	829.926821751862	13
36	9688	830.433307895834	4
36	9698	831.240750268196	7
36	9703	831.548031681202	2
36	9729	834.8	8
36	9736	835.4	5
36	9751	836.504479173375	10
36	9763	837.511135784825	9
36	9772	838.015641959686	4
36	9785	839.119058249522	10
36	9799	840.119559112639	9
36	9809	840.921647046616	7
36	9821	841.924336095729	9
36	9858	845.9	19
36	9865	846.3	3
36	9873	846.90782119658	5
36	9883	847.711406567389	7
36	9899	848.914291066379	11
36	9915	850.118583547503	11
36	9924	850.824034103974	6
36	9931	851.329395089225	4
36	9939	851.930626909847	5
36	9953	852.936511122526	9
36	9965	853.943877352543	9
36	9986	856.3	3
36	9994	857	6
36	10003	857.706284435961	6
36	10019	858.912230993704	11
36	10035	860.119378849208	11
36	10045	860.924885804569	7
36	10057	861.933647565464	9
36	10065	862.335569949564	3
36	10075	863.14099882871	7
36	10083	863.748692135471	5
36	10093	864.356051136367	5
36	10114	866.065788643714	16
36	10138	870.6	6
36	10142	870.9	2
36	10160	872.307380615009	13
36	10171	873.215036517623	8
36	10185	874.222308447481	9
36	10193	874.830514909873	5
36	10201	875.432112778447	5
36	10214	876.337533254635	8
36	10220	876.741784123191	3
36	10244	880.7	7
36	10257	881.9	11
36	10271	882.907273457893	9
36	10283	883.914881154573	9
36	10295	884.720587047903	7
36	10346	888.4	4
36	10353	888.7	2
36	10365	889.202044642809	4
36	10373	889.80644464078	5
36	10388	890.91408180252	10
36	10404	892.117859027537	11
36	10418	893.320670060072	11
36	10432	894.324294330786	9
36	10455	898.7	7
36	10461	899.2	4
36	10478	900.503866287912	12
36	10494	901.909422668572	13
36	10510	903.117053131111	11
36	10519	903.819201503914	6
36	10528	904.323858452556	4
36	10551	906.227264035563	18
36	10576	910.7	7
36	10586	911.6	8
36	10602	912.800885640634	11
36	10615	913.906038447289	10
36	10630	915.012554818004	10
36	10639	915.720122704364	6
36	10654	916.824349368065	10
36	10670	918.026080316604	11
36	10679	918.730595602058	6
36	10707	921.135688005956	23
36	10714	921.639131713158	4
36	10730	922.839257624833	11
36	10760	927.2	12
36	10777	928.6	13
36	10785	929.203423800216	5
36	10793	929.805068396279	5
36	10803	930.411252762526	5
36	10811	931.019805411589	5
36	10819	931.625100541074	5
36	10827	932.029886494526	3
36	10834	932.530000297411	4
36	10862	937	10
36	10879	938.4	13
36	10891	939.403110694857	9
36	10897	939.803941251728	3
36	10911	940.804197853225	9
36	10924	941.904479148121	10
36	10931	942.207560218769	2
36	10942	943.113760192737	8
36	10956	944.119830860815	9
36	10969	945.227861192308	10
36	10985	946.432711191547	11
36	10994	947.140209131214	6
36	11009	948.247854691335	10
36	11044	953.8	18
36	11050	954.1	2
36	11065	955.40004391073	12
36	11075	956.006077966266	5
36	11082	956.507497745891	4
36	11108	960.8	8
36	11117	961.6	7
36	11127	962.207025655668	5
36	11144	963.709872994138	14
36	11153	964.210057450038	4
36	11164	965.113737008924	8
36	11181	966.416045690696	12
36	11196	967.719521507104	12
36	11214	969.12162088057	13
36	11231	970.430423637635	12
36	11235	970.634194888073	1
36	11254	972.135185100718	14
36	11280	976.9	9
36	11285	977.3	3
36	11301	978.504672953709	11
36	11307	978.913095300524	3
36	11322	980.016968566428	10
36	11338	981.426331883424	13
36	11354	982.631800875393	11
36	11367	983.737509098748	10
36	11394	986.9	9
36	11397	987.1	1
36	11402	987.405422482304	2
36	11409	987.906633292245	4
36	11421	988.713726301262	7
36	11425	988.915498513084	1
36	11435	989.717712118053	7
36	11444	990.227404737623	4
36	11448	990.433831921353	1
36	11456	991.040228699201	5
36	11467	991.941109549454	8
36	11496	995.1	11
36	11503	995.7	5
36	11520	997.007047002576	12
36	11537	998.312953703801	12
36	11552	999.619909218083	12
36	11569	1000.925754532179	12
36	11586	1002.231783018245	12
36	11608	1006.7	7
36	11613	1007.1	3
36	11626	1008.009412937783	8
36	11630	1008.210888492401	1
36	11635	1008.415898933788	1
36	11643	1009.020664686064	5
36	11664	1010.72730901919	16
36	11671	1011.230589720636	4
36	11677	1011.634984793028	3
36	11686	1012.142054735227	4
36	11722	1017.8	18
36	11731	1018.4	5
36	11739	1019.004481850257	5
36	11753	1020.007977843806	9
36	11767	1021.215183975787	11
36	11782	1022.31840535409	10
36	11792	1023.125146476285	7
36	11810	1026.3	3
36	11820	1027.2	8
36	11835	1028.309448125374	10
36	11846	1029.210563845627	8
36	11861	1030.315344608055	10
36	11886	1034.7	7
36	11893	1035.3	5
36	11898	1035.607216667036	2
36	11910	1036.412500612974	7
36	11914	1036.6130442404	1
36	11932	1038.015585720396	13
36	11947	1039.317044489715	12
36	11959	1040.124763080902	7
36	11969	1040.931169783943	7
36	11980	1041.831363461571	8
36	12061	1045.3	13
36	12097	1046.8	14
36	12105	1047.409039216719	5
36	12124	1048.913462377264	14
36	12132	1049.514630179581	5
36	12138	1049.922564621936	3
36	12157	1052.1	1
36	12167	1053	8
36	12174	1053.506530067462	4
36	12190	1054.708807186852	11
36	12199	1055.413102399136	6
36	12206	1055.920894464342	4
36	12217	1056.532736845373	5
36	12226	1057.23313698939	6
36	12247	1060.3	3
36	12255	1061	6
36	12271	1062.20353522012	11
36	12283	1063.212934005209	9
36	12297	1064.214492639114	9
36	12311	1065.416171129836	11
36	12317	1065.816454403569	3
36	12333	1068.1	1
36	12338	1068.5	3
36	12350	1069.50309815803	9
36	12359	1070.008723803785	4
36	12371	1071.011788676866	9
36	12381	1071.813841307177	7
36	12390	1072.314749606672	4
36	12414	1076.6	6
36	12422	1077.3	6
36	12428	1077.704188114313	3
36	12441	1078.605249338263	8
36	12455	1079.8087264332	11
36	12481	1082.8	8
36	12498	1084.2	13
36	12513	1085.503988400367	12
36	12528	1086.612034368559	10
36	12541	1087.715741001874	10
36	12554	1088.622014414536	8
36	12567	1089.724671916841	10
36	12600	1093.8	18
36	12617	1095.2	13
36	12626	1095.90959328857	6
36	12639	1096.816568870232	8
36	12647	1097.423156845287	5
36	12660	1098.329292480872	8
36	12671	1099.238859787328	8
36	12700	1103.1	11
36	12706	1103.6	4
36	12716	1104.205049186276	5
36	12742	1106.413765500717	21
36	12754	1107.414378222313	9
36	12764	1108.015044210462	5
36	12779	1109.319204160936	12
36	12798	1110.823025206839	14
36	12816	1112.224501471989	13
36	12826	1113.02961114036	7
36	12854	1117	10
36	12860	1117.5	4
36	12869	1118.003932756765	4
36	12879	1118.8071071379	7
36	12897	1120.213783666796	13
36	12915	1121.817374960814	15
36	12925	1122.419541034844	5
36	12938	1123.520292814831	10
36	12947	1124.024421868718	4
36	12967	1128.2	2
36	12974	1128.8	5
36	12984	1129.602276971202	7
36	13002	1131.009646074251	13
36	13007	1131.312280443995	2
36	13023	1132.520134182644	11
36	13032	1133.221332544087	6
36	13066	1137.6	16
36	13076	1138.3	6
36	13085	1139.003855396518	6
36	13091	1139.412006790129	3
36	13108	1140.721623598843	12
36	13115	1141.223474715252	4
36	13122	1141.72870916859	4
36	13126	1141.932832241884	1
36	13152	1144.8	8
36	13159	1145.4	5
36	13170	1146.103115000794	6
36	13182	1147.106483207851	9
36	13189	1147.612610189147	4
36	13209	1150.2	2
36	13217	1150.9	6
36	13228	1151.807115189868	8
36	13241	1152.710536049589	8
36	13250	1153.413930838332	6
36	13280	1157.2	12
36	13294	1158.3	10
36	13301	1158.809082083543	4
36	13325	1160.816591393211	19
36	13334	1161.520658963016	6
36	13347	1162.422165238036	8
36	13364	1163.93091851912	14
36	13388	1165.937875325889	19
36	13409	1168.5	5
36	13429	1170.2	16
36	13436	1170.704789786371	4
36	13456	1172.311797944306	15
36	13471	1173.620002202334	12
36	13483	1174.425901226434	7
36	13489	1174.835888900102	3
36	13505	1176.041596695877	11
36	13514	1176.741643871893	6
36	13521	1177.245980499118	4
36	13528	1177.74868391068	4
36	13538	1178.349963673055	5
36	13546	1178.953886778161	5
36	13561	1180.056828113121	10
36	13582	1184.4	4
36	13591	1185.2	7
36	13603	1186.004693012381	7
36	13613	1186.813583305244	7
36	13626	1187.922975034668	10
36	13639	1188.826884599466	8
36	13647	1189.43210261683	5
36	13665	1192	0
36	13679	1193.3	12
36	13695	1194.506114055817	11
36	13699	1194.709459716614	1
36	13713	1195.912595536712	11
36	13730	1197.213444741373	12
36	13738	1197.821988364092	5
36	13760	1200.7	7
36	13768	1201.4	6
36	13779	1202.107995914097	6
36	13795	1203.509482566725	13
36	13806	1204.219279577668	6
36	13830	1208.6	6
36	13839	1209.4	7
36	13853	1210.402077112179	9
36	13866	1211.511166575841	10
36	13872	1211.913195211204	3
36	13899	1214.9	9
36	13913	1216	10
36	13929	1217.4008227866	13
36	13936	1217.905200385062	4
36	13953	1219.206740013337	12
36	13971	1220.608548788418	13
36	13981	1221.410619132555	7
36	13999	1222.816389894768	13
36	14023	1226.8	8
36	14029	1227.3	4
36	14047	1228.706358266426	13
36	14066	1230.212482201782	14
36	14078	1231.221662921185	9
36	14096	1232.62793998279	13
36	14107	1233.531086829834	8
36	14131	1236.6	6
36	14136	1237	3
36	14147	1237.900729859049	8
36	14158	1238.609957830886	6
36	14165	1239.116954181817	4
36	14182	1240.421935207234	12
36	14190	1241.022739948954	5
36	14204	1242.031085378911	9
36	14209	1242.334958451245	2
36	14224	1243.641678261285	12
36	14239	1244.746536956902	10
36	14245	1245.155369220524	3
36	14285	1250	20
36	14289	1250.3	2
36	14294	1250.605102013044	2
36	14305	1251.505990839374	8
36	14317	1252.310116258016	7
36	14331	1253.510665782009	11
36	14335	1253.717923013941	1
36	14345	1254.322411928079	5
36	14355	1255.130135969861	7
36	14395	1260	20
36	14407	1261.1	10
36	14417	1261.901720062568	7
36	14427	1262.503625862464	5
36	14442	1263.808911659278	12
36	14453	1264.513673322271	6
36	14459	1264.922681204863	3
36	14475	1266.130692526272	11
36	14515	1271	10
36	14525	1271.9	8
36	14537	1272.706503951598	7
36	14544	1273.209175857167	4
36	14561	1274.517088904212	12
36	14566	1274.826169366027	2
36	14577	1275.734364360895	8
36	14586	1276.236720414124	4
36	14600	1277.444875466632	11
36	14630	1281.4	14
36	14642	1282.3	8
36	14651	1283.005565463386	6
36	14659	1283.614607333221	5
36	14669	1284.216006408344	5
36	14677	1284.820278523027	5
36	14685	1285.426871700913	5
36	14697	1286.23643173699	7
36	14721	1290.6	6
36	14731	1291.5	8
36	14742	1292.209506052415	6
36	14746	1292.417356587368	1
36	14752	1292.822009545416	3
36	14761	1293.522439399417	6
36	14774	1294.424130507811	8
36	14793	1298.1	1
36	14799	1298.6	4
36	14808	1299.301488759794	6
36	14820	1300.108293815438	7
36	14825	1300.417580204868	2
36	14856	1305.3	13
36	14876	1307	16
36	14891	1308.102114373804	10
36	14909	1309.708324577442	15
36	14929	1311.314623662749	15
36	14948	1312.817496667191	14
36	14954	1313.21874091483	3
36	14972	1314.625425463589	13
36	14994	1316.427549041858	17
36	15035	1320.5	5
36	15055	1322.2	16
36	15068	1323.307737255336	10
36	15076	1323.9144468447	5
36	15090	1324.915875661067	9
36	15109	1328.1	1
36	15117	1328.8	6
36	15127	1329.60411281032	7
36	15131	1329.80454916902	1
36	15143	1330.605798467235	7
36	15148	1330.906962915235	2
36	15158	1331.70829583228	7
36	15168	1332.31078152387	5
36	15178	1333.118288100753	7
36	15203	1336.7	7
36	15222	1338.3	15
36	15227	1338.607659900372	2
36	15242	1339.913550456554	12
36	15252	1340.522166198756	5
36	15260	1341.123410509681	5
36	15269	1341.826222995587	6
36	15295	1344.8	8
36	15305	1345.7	8
36	15316	1346.404440608506	6
36	15336	1348.013707730806	15
36	15356	1349.81401666639	17
36	15377	1351.515584139079	16
36	15394	1352.815639954346	12
36	15415	1354.517876713149	16
36	15419	1354.72264526913	1
36	15440	1356.429953419285	16
36	15462	1358.231277673259	17
36	15484	1360.035631789779	17
36	15504	1361.836657040428	17
36	15526	1363.645432585281	17
36	15540	1364.647156736204	9
36	15563	1368.5	5
36	15567	1368.8	2
36	15572	1369.103343087332	2
36	15585	1370.005123608167	8
36	15598	1371.112933381932	10
36	15607	1371.819899644198	6
36	15613	1372.025012598962	1
36	15641	1377	10
36	15646	1377.4	3
36	15651	1377.708167326217	2
36	15659	1378.114459165476	3
36	15667	1378.717146929089	5
36	15676	1379.425540743371	6
36	15681	1379.731587617419	2
36	15690	1380.24046349796	4
36	15720	1385.2	12
36	15736	1386.5	12
36	15744	1387.103602502075	5
36	15759	1388.207402029516	10
36	15767	1388.81657368722	5
36	15776	1389.52372098516	6
36	15791	1390.630326127803	10
36	15812	1394.6	6
36	15824	1395.7	10
36	15833	1396.204907898819	4
36	15839	1396.609344016832	3
36	15846	1397.109850248831	4
36	15852	1397.515015949801	3
36	15858	1397.923004106968	3
36	15884	1400.8	8
36	15902	1402.3	14
36	15913	1403.209782755593	8
36	15921	1403.810063382891	5
36	15935	1404.817722325246	9
36	15942	1405.326688279356	4
36	15960	1406.72829244934	13
36	15965	1407.033285975025	2
36	15973	1407.639279218664	5
36	15981	1408.046744066985	3
36	16002	1412.5	5
36	16007	1412.9	3
36	16028	1414.60528429097	16
36	16033	1414.819757528446	1
36	16041	1415.425929199679	5
36	16045	1415.626910939035	1
36	16049	1415.831635740848	1
36	16056	1416.136271812728	2
36	16060	1416.345105701962	1
36	16117	1420.8	8
36	16137	1421.8	9
36	16147	1422.403725233089	5
36	16155	1423.012781690519	5
36	16172	1424.322138718978	12
36	16198	1428.8	8
36	16207	1429.6	7
36	16216	1430.102509288697	4
36	16220	1430.305214853365	1
36	16231	1431.210361504907	8
36	16255	1434.6	6
36	16261	1435.1	4
36	16275	1436.104037993571	9
36	16290	1437.406420214292	12
36	16308	1438.807470095354	13
36	16325	1440.114816077648	12
36	16342	1441.616433666677	14
36	16357	1442.720942613196	10
36	16380	1444.630150692243	18
36	16398	1446.03131993197	13
36	16424	1450.8	8
36	16429	1451.2	3
36	16443	1452.20518153744	9
36	16453	1453.008989834761	7