version 2
run Join-0-20130429-12:49:11-17679
attr configname Join
attr datetime 20130429-12:49:11
attr experiment "\"Join\""
attr inifile omnetpp.ini
attr iterationvars $0=32
attr iterationvars2 "$0=32, $repetition=0"
attr measurement $0=32
attr network Network
attr processid 17679
attr repetition 0
attr replication #0
attr resultdir results
attr runnumber 0
attr seedset 0

vector 0  Network.dyn_peer[0]  lookupHopsSig:vector  ETV
0	280	20.3	3
0	283	20.5	1
0	288	20.801381829495	2
0	292	21.009165284312	1
0	297	21.311131107879	2
0	317	24.2	2
0	321	24.5	2
0	326	24.800135716418	2
0	332	25.201106729129	3
0	352	28.2	2
0	355	28.4	1
0	359	28.609719449989	1
0	364	28.919484044641	2
0	368	29.128265979326	1
0	375	29.632952491309	4
0	394	32.1	1
0	399	32.5	3
0	404	32.804511592139	2
0	410	33.211904227952	3
0	416	33.612104104675	3
0	439	36.5	5
0	443	36.8	2
0	449	37.201201965645	3
0	453	37.404796410334	1
0	459	37.807757812326	3
0	480	40.3	3
0	486	40.8	4
0	491	41.108804758931	2
0	497	41.512947388814	3
0	502	41.722771218552	1
0	520	44	0
0	527	44.6	5
0	533	45.008651025639	3
0	537	45.21130492055	1
0	543	45.616394610159	3
0	548	45.921627090688	2
0	566	48	0
0	571	48.4	3
0	578	48.900831124866	4
0	582	49.110124086844	1
0	603	52.3	3
0	606	52.5	1
0	613	53.008423420791	4
0	618	53.309741399411	2
0	623	53.616213140796	2
0	628	53.923376412774	2
0	648	56.2	2
0	652	56.5	2
0	657	56.803978207516	2
0	663	57.209843336846	3
0	683	60.2	2
0	687	60.5	2
0	694	61.003698080957	4
0	699	61.303745035777	2
0	705	61.705209453409	3
0	714	62.211987618802	4
0	719	62.517683802845	2
0	740	66.3	3
0	744	66.6	2
0	748	66.809621885449	1
0	753	67.113954766087	2
0	757	67.316442297484	1
0	761	67.524003364398	1
0	766	67.733725920538	1
0	771	67.948606723694	1
0	779	68.260718453509	2
0	800	72.3	3
0	804	72.6	2
0	810	72.908963231104	2
0	815	73.217427317765	2
0	820	73.527213027004	2
0	824	73.734207819778	1
0	844	76.2	2
0	847	76.4	1
0	852	76.704118201418	2
0	856	76.908083258806	1
0	860	77.114837649577	1
0	867	77.623648681585	4
0	878	78.326146644335	6
0	883	78.535091556414	1
0	889	78.943908910009	3
0	895	79.353563072195	3
0	916	82.3	3
0	921	82.7	3
0	926	83.00501324383	2
0	930	83.210345306346	1
0	934	83.419906142743	1
0	938	83.622211472974	1
0	946	84.028651374939	3
0	965	88.1	1
0	969	88.4	2
0	973	88.604748675215	1
0	979	89.004940607221	3
0	985	89.409641929105	3
0	1006	92.3	3
0	1010	92.6	2
0	1016	93.002900776099	3
0	1023	93.412915552628	3
0	1029	93.724694937973	2
0	1049	96.2	2
0	1052	96.4	1
0	1057	96.700923738866	2
0	1062	97.006623387981	2
0	1080	100	0
0	1087	100.6	5
0	1093	101.000336250937	3
0	1097	101.206868259091	1
0	1103	101.523078909493	2
0	1107	101.72628888193	1
0	1126	104.1	1
0	1132	104.503675618716	3
0	1137	104.804648217982	2
0	1142	105.018847289529	1
0	1161	108.1	1
0	1165	108.4	2
0	1170	108.707038885855	2
0	1176	109.111518147591	3
0	1181	109.412520416456	2
0	1202	112.3	3
0	1207	112.7	3
0	1213	113.104692491716	3
0	1218	113.414680961744	2
0	1224	113.823092363042	3
0	1232	114.224586846088	3
0	1252	118.2	2
0	1255	118.4	1
0	1262	118.905083154502	4
0	1266	119.111238750176	1
0	1285	122.1	1
0	1288	122.3	1
0	1293	122.608649332928	2
0	1299	122.920836489775	2
0	1322	126.5	5
0	1325	126.7	1
0	1334	127.12122461472	3
0	1340	127.525760041522	3
0	1345	127.829960795198	2
0	1365	130.2	2
0	1368	130.4	1
0	1374	130.80975521512	3
0	1378	131.009921494814	1
0	1384	131.418479528244	3
0	1390	131.82078695166	3
0	1397	132.120904092475	2
0	1401	132.328553209454	1
0	1406	132.632152990044	2
0	1426	136.2	2
0	1433	136.8	5
0	1438	137.00860440419	1
0	1443	137.31349989361	2
0	1463	140.2	2
0	1469	140.7	4
0	1473	140.900185217941	1
0	1480	141.401895083868	4
0	1486	141.809832060892	3
0	1495	142.314466570653	4
0	1502	142.81670581748	4
0	1506	143.0254515471	1
0	1511	143.328905063885	2
0	1532	146.3	3
0	1537	146.7	3
0	1542	147.005966554128	2
0	1548	147.314121385847	2
0	1556	147.820768590348	4
0	1565	148.326983374415	4
0	1572	148.827487075002	4
0	1577	149.133259360854	2
0	1598	152.3	3
0	1602	152.6	2
0	1609	153.10267262534	4
0	1614	153.408812284865	2
0	1632	156	0
0	1635	156.2	1
0	1641	156.607508442469	3
0	1646	156.914809662731	2
0	1667	160.3	3
0	1673	160.8	4
0	1677	161.002123905019	1
0	1681	161.204222342559	1
0	1686	161.408308704847	1
0	1692	161.71993992241	2
0	1712	164.2	2
0	1716	164.5	2
0	1721	164.809702366848	2
0	1727	165.211976513139	3
0	1731	165.41878196008	1
0	1736	165.721325524907	2
0	1758	168.4	4
0	1764	168.9	4
0	1771	169.404878377059	4
0	1777	169.807996335827	3
0	1784	170.116806381413	2
0	1789	170.42376981627	2
0	1795	170.833533860172	3
0	1814	174.1	1
0	1817	174.3	1
0	1823	174.700246787287	3
0	1827	174.908792923117	1
0	1831	175.109465419425	1
0	1852	178.3	3
0	1858	178.8	4
0	1865	179.306770815763	4
0	1869	179.512136607849	1
0	1875	179.82717377136	2
0	1881	180.034320740688	1
0	1887	180.444224130147	3
0	1908	184.3	3
0	1912	184.6	2
0	1918	185.009064180888	3
0	1923	185.311697404668	2
0	1946	188.5	5
0	1949	188.7	1
0	1956	189.20881585404	4
0	1961	189.512016025487	2
0	1970	190.021060275259	4
0	1977	190.524894914171	4
0	1982	190.831352760168	2
0	1986	191.037235931342	1
0	2006	194.2	2
0	2010	194.5	2
0	2017	195.000000553503	4
0	2021	195.208727060078	1
0	2042	198.3	3
0	2045	198.5	1
0	2052	199.008853376642	4
0	2057	199.310709736073	2
0	2078	202.3	3
0	2082	202.6	2
0	2086	202.804834086175	1
0	2091	203.106989162952	2
0	2095	203.314876557166	1
0	2099	203.524350263112	1
0	2103	203.726644681402	1
0	2107	203.933953239427	1
0	2113	204.142756215471	1
0	2135	208.4	4
0	2140	208.8	3
0	2145	209.105182007113	2
0	2151	209.509899522871	3
0	2156	209.810156150005	2
0	2164	210.21727198822	3
0	2169	210.519346689007	2
0	2175	210.920883632041	3
0	2180	211.225130486692	2
0	2201	214.3	3
0	2205	214.6	2
0	2209	214.802148807365	1
0	2216	215.304925094448	4
0	2221	215.606789676634	2
0	2230	216.020733322736	3
0	2251	220.3	3
0	2255	220.6	2
0	2263	221.107942728632	4
0	2268	221.409263409728	2
0	2274	221.718181095249	2
0	2292	224	0
0	2296	224.3	2
0	2301	224.608404285353	2
0	2307	225.010237083748	3
0	2311	225.212285741363	1
0	2317	225.613734218988	3
0	2337	228.2	2
0	2342	228.6	3
0	2347	228.907220806607	2
0	2351	229.116625126122	1
0	2355	229.316929655779	1
0	2360	229.532052850679	1
0	2371	230.239539486924	6
0	2392	234.3	3
0	2397	234.7	3
0	2407	235.320331406463	5
0	2412	235.626176167186	2
0	2433	238.3	3
0	2436	238.5	1
0	2444	239.102869150454	5
0	2448	239.305277438225	1
0	2453	239.612050071291	2
0	2472	242.1	1
0	2478	242.6	4
0	2483	242.909295293181	2
0	2488	243.209387693882	2
0	2511	246.5	5
0	2514	246.7	1
0	2520	247.102817301042	3
0	2525	247.409852248895	2
0	2529	247.615716350594	1
0	2549	250.2	2
0	2554	250.6	3
0	2560	251.005804471306	3
0	2566	251.415579422658	3
0	2571	251.723454844191	2
0	2579	252.038284651237	2
0	2600	256.3	3
0	2606	256.8	4
0	2610	257.002317016255	1
0	2617	257.511105713643	4
0	2623	257.92059890186	3
0	2629	258.125521584258	1
0	2649	262.2	2
0	2654	262.6	3
0	2661	263.106304479355	4
0	2666	263.413389960843	2
0	2670	263.622132840541	1
0	2674	263.827114242825	1
0	2695	266.3	3
0	2699	266.6	2
0	2705	267.006178766919	3
0	2711	267.413912027067	3
0	2730	270.1	1
0	2736	270.6	4
0	2743	271.1014814086	4
0	2748	271.409285675091	2
0	2771	274.5	5
0	2776	274.9	3
0	2783	275.30501439473	3
0	2787	275.511409119894	1
0	2806	278.1	1
0	2812	278.504282238269	3
0	2817	278.812503415618	2
0	2821	279.015481833835	1
0	2828	279.517380312973	4
0	2847	282.1	1
0	2851	282.4	2
0	2856	282.709806996735	2
0	2863	283.210785441596	4
0	2868	283.51484664647	2
0	2873	283.823468561611	2
0	2879	284.029160669176	1
0	2883	284.238889864077	1
0	2887	284.442325919071	1
0	2909	288.4	4
0	2914	288.707740473363	2
0	2920	289.111333187534	3
0	2926	289.418659628265	2
0	2930	289.619470642188	1
0	2934	289.82248895093	1
0	2942	290.226561362607	3
0	2961	294.1	1
0	2967	294.503253103091	3
0	2971	294.703787374865	1
0	2975	294.913316081576	1
0	2994	298.1	1
0	2998	298.4	2
0	3003	298.707705807487	2
0	3010	299.210751627789	4
0	3015	299.512221094205	2
0	3036	302.3	3
0	3041	302.606774118244	2
0	3048	302.924052509349	2
0	3052	303.128373989826	1
0	3058	303.345674417487	1
0	3078	306.2	2
0	3084	306.7	4
0	3090	307.100965496143	3
0	3095	307.403668775178	2
0	3100	307.706230171007	2
0	3107	308.007544998965	2
0	3115	308.418782865809	3
0	3136	312.3	3
0	3142	312.8	4
0	3149	313.30456140564	4
0	3154	313.609807331798	2
0	3160	313.921060298329	2
0	3182	316.4	4
0	3188	316.9	4
0	3192	317.103799269513	1
0	3197	317.412067973189	2
0	3202	317.713879482817	2
0	3224	320.4	4
0	3230	320.9	4
0	3235	321.206600398616	2
0	3241	321.613570371034	3
0	3246	321.91563631709	2
0	3267	324.3	3
0	3273	324.8	4
0	3279	325.202594225655	3
0	3284	325.50437789919	2
0	3305	328.3	3
0	3313	329	6
0	3317	329.202728218969	1
0	3322	329.511648715587	2
0	3327	329.815357243587	2
0	3333	330.016691895693	1
0	3354	334.3	3
0	3358	334.6	2
0	3362	334.800446122973	1
0	3366	335.007597910461	1
0	3370	335.215595869293	1
0	3374	335.42050405546	1
0	3379	335.721273619899	2
0	3399	338.2	2
0	3402	338.4	1
0	3407	338.704884100616	2
0	3412	339.010659530106	2
0	3432	342.2	2
0	3435	342.4	1
0	3439	342.604752894444	1
0	3443	342.805106518806	1
0	3447	343.012942998483	1
0	3452	343.317247022878	2
0	3458	343.722811317142	3
0	3477	346.1	1
0	3480	346.3	1
0	3484	346.50681392512	1
0	3488	346.713308555436	1
0	3496	347.122765358025	3
0	3502	347.429948962502	2
0	3522	350.2	2
0	3525	350.4	1
0	3529	350.601294123376	1
0	3535	351.010333962891	3
0	3539	351.216123186765	1
0	3546	351.7215612463	4
0	3550	351.922483848	1
0	3571	354.3	3
0	3576	354.7	3
0	3582	355.012589824153	2
0	3587	355.319831500514	2
0	3607	358.2	2
0	3612	358.6	3
0	3619	359.104263058779	4
0	3626	359.61116330898	4
0	3636	360.028693707307	3
0	3658	364.4	4
0	3662	364.7	2
0	3666	364.906360610565	1
0	3672	365.313674583982	3
0	3678	365.716074786719	3
0	3682	365.92374442178	1
0	3702	368.2	2
0	3708	368.609591666029	3
0	3714	369.011920320775	3
0	3719	369.316501709024	2
0	3723	369.521535983289	1
0	3728	369.82744582492	2
0	3749	372.3	3
0	3755	372.8	4
0	3759	373.000974686865	1
0	3765	373.410493431612	3
0	3770	373.716710216518	2
0	3775	373.93109795426	1
0	3781	374.139305625457	1
0	3787	374.449970385281	2
0	3807	378.2	2
0	3813	378.7	4
0	3817	378.900944579157	1
0	3823	379.307233563551	3
0	3827	379.513569642427	1
0	3848	382.3	3
0	3852	382.6	2
0	3856	382.804240322518	1
0	3861	383.108714105512	2
0	3865	383.311300946168	1
0	3869	383.518577909538	1
0	3874	383.827068292594	2
0	3896	386.4	4
0	3900	386.7	2
0	3905	387.001197713483	2
0	3910	387.304751401978	2
0	3916	387.709190188775	3
0	3923	388.012757257673	2
0	3943	392.2	2
0	3950	392.708453576844	4
0	3956	393.112466171814	3
0	3960	393.317828917188	1
0	3966	393.727121831321	3
0	3974	394.133924532879	3
0	3994	398.2	2
0	3999	398.6	3
0	4006	398.914156785154	2
0	4010	399.114716443457	1
0	4014	399.317983452324	1
0	4021	399.623547951447	2
0	4041	402.2	2
0	4046	402.6	3
0	4053	402.909574766525	2
0	4057	403.116073086266	1
0	4063	403.422199735794	2
0	4081	406	0
0	4086	406.4	3
0	4092	406.80253191191	3
0	4097	407.011553354776	1
0	4101	407.21531562059	1
0	4105	407.415435982821	1
0	4124	410.1	1
0	4130	410.6	4
0	4137	411.102446514088	4
0	4141	411.312189076258	1
0	4146	411.525835758269	1
0	4150	411.726292354688	1
0	4170	414.2	2
0	4175	414.6	3
0	4181	415.006387617546	3
0	4185	415.214457845922	1
0	4205	418.2	2
0	4210	418.6	3
0	4216	419.000653042062	3
0	4221	419.303780574989	2
0	4226	419.519631280874	1
0	4232	419.823219737796	2
0	4253	422.3	3
0	4258	422.7	3
0	4265	423.202460631832	4
0	4270	423.508799941357	2
0	4275	423.724727323416	1
0	4295	426.2	2
0	4299	426.5	2
0	4306	426.909825221941	3
0	4312	427.220921331604	2
0	4316	427.427987078679	1
0	4320	427.635369344487	1
0	4343	430.5	5
0	4347	430.8	2
0	4353	431.111918181679	2
0	4358	431.421167850841	2
0	4377	434.1	1
0	4380	434.3	1
0	4384	434.504490834269	1
0	4389	434.807976027903	2
0	4394	435.117348871541	2
0	4398	435.325498536355	1
0	4421	438.5	5
0	4424	438.7	1
0	4431	439.206971416103	4
0	4438	439.716020899524	4
0	4460	442.4	4
0	4464	442.7	2
0	4468	442.902415456878	1
0	4473	443.204909657308	2
0	4495	446.4	4
0	4502	447	5
0	4507	447.308915226825	2
0	4511	447.51124942938	1
0	4515	447.71483050413	1
0	4519	447.921728186784	1
0	4539	450.2	2
0	4545	450.7	4
0	4550	451.001138166391	2
0	4558	451.609955368532	5
0	4569	452.218990992962	5
0	4574	452.520319142963	2
0	4595	456.3	3
0	4599	456.6	2
0	4604	456.907487882524	2
0	4608	457.11428903791	1
0	4615	457.42634098879	2
0	4635	460.2	2
0	4638	460.4	1
0	4644	460.808859622655	3
0	4648	461.017251513863	1
0	4653	461.320770219501	2
0	4657	461.523147637736	1
0	4662	461.735555435675	1
0	4682	464.2	2
0	4686	464.5	2
0	4691	464.805485190958	2
0	4696	465.114158085013	2
0	4702	465.51935451327	3
0	4707	465.828756610205	2
0	4717	466.432244436797	5
0	4722	466.739752085437	2
0	4744	470.4	4
0	4751	471	5
0	4758	471.31834170285	2
0	4762	471.522859919665	1
0	4783	474.3	3
0	4787	474.6	2
0	4791	474.806719070188	1
0	4799	475.216892639623	3
0	4805	475.623853411307	3
0	4813	476.02516630461	3
0	4834	480.3	3
0	4838	480.6	2
0	4842	480.809602567825	1
0	4847	481.118556426671	2
0	4854	481.619280771134	4
0	4877	484.5	5
0	4880	484.7	1
0	4885	484.904233016541	1
0	4890	485.21015532072	2
0	4895	485.51274234389	2
0	4900	485.723865243601	1
0	4923	488.5	5
0	4927	488.8	2
0	4931	489.002716527697	1
0	4937	489.405446616731	3
0	4959	492.4	4
0	4962	492.6	1
0	4969	493.102484134603	4
0	4976	493.611364571661	4
0	4980	493.816423235504	1
0	4987	494.026613132174	1
0	5007	498.2	2
0	5013	498.7	4
0	5020	499.200265225511	4
0	5024	499.4077711757	1
0	5028	499.614027541876	1
0	5050	502.4	4
0	5056	502.9	4
0	5064	503.508623185479	5
0	5069	503.81030894953	2
0	5090	506.3	3
0	5096	506.704461355074	3
0	5100	506.913353688327	1
0	5106	507.31439996718	3
0	5112	507.719524483783	3
0	5121	508.128115532705	3
0	5126	508.435516507978	2
0	5145	512.1	1
0	5151	512.6	4
0	5155	512.809447074786	1
0	5161	513.216552358767	3
0	5167	513.527530218047	2
0	5174	513.937718343182	3
0	5194	516.2	2
0	5200	516.7	4
0	5205	517.002726831149	2
0	5210	517.30816361169	2
0	5214	517.509646298092	1
0	5234	520.2	2
0	5237	520.4	1
0	5243	520.807103368281	3
0	5249	521.210099803236	3
0	5253	521.410178644262	1
0	5273	524.2	2
0	5279	524.605580650982	3
0	5284	524.914801765617	2
0	5291	525.418413280786	4
0	5295	525.619308226226	1
0	5317	528.4	4
0	5323	528.9	4
0	5327	529.10425507636	1
0	5331	529.307681186182	1
0	5337	529.71674290459	3
0	5360	532.5	5
0	5366	533	4
0	5372	533.309006436787	2
0	5379	533.810163469147	4
0	5385	534.011157633075	1
0	5404	538.1	1
0	5410	538.6	4
0	5415	538.906719571382	2
0	5422	539.413961049865	4
0	5427	539.723449660108	2
0	5447	542.2	2
0	5450	542.4	1
0	5455	542.70454859876	2
0	5460	543.010552521095	2
0	5482	546.4	4
0	5488	546.9	4
0	5494	547.309147906636	3
0	5499	547.609316623392	2
0	5507	548.015989471792	3
0	5528	552.3	3
0	5532	552.6	2
0	5536	552.805098071917	1
0	5541	553.111584055013	2
0	5562	556.3	3
0	5567	556.7	3
0	5572	557.000972429243	2
0	5577	557.210817355607	1
0	5582	557.425928295922	1
0	5603	560.3	3
0	5608	560.604610068285	2
0	5612	560.806887663283	1
0	5620	561.319258921057	4
0	5627	561.639755698457	2
0	5648	564.3	3
0	5652	564.6	2
0	5656	564.801334614693	1
0	5660	565.005378864065	1
0	5679	568.1	1
0	5686	568.7	5
0	5692	569.105027207636	3
0	5696	569.308820768384	1
0	5716	572.2	2
0	5720	572.409233060635	1
0	5724	572.616040032997	1
0	5729	572.827210199263	1
0	5736	573.336893063409	4
0	5759	576.5	5
0	5765	577	4
0	5769	577.201064294124	1
0	5776	577.605976893392	3
0	5794	580	0
0	5797	580.2	1
0	5805	580.803000289155	5
0	5809	581.012063831486	1
0	5817	581.613668507916	5
0	5825	582.019469576995	3
0	5830	582.328332623643	2
0	5851	586.3	3
0	5855	586.6	2
0	5859	586.805808872745	1
0	5865	587.108869879011	2
0	5872	587.518837363952	3
0	5892	590.2	2
0	5895	590.4	1
0	5901	590.618548558884	1
0	5906	590.927333485182	2
0	5926	594.2	2
0	5929	594.4	1
0	5936	594.900610785388	4
0	5940	595.105357465233	1
0	5944	595.31443479481	1
0	5950	595.716278420782	3
0	5957	596.023677259988	2
0	5978	600.3	3
0	5984	600.8	4
0	5989	601.107152078317	2
0	5994	601.412441477598	2
0	6016	604.4	4
0	6020	604.7	2
0	6024	604.900030995432	1
0	6029	605.203652886007	2
0	6033	605.409625915378	1
0	6038	605.714332404866	2
0	6061	608.5	5
0	6065	608.8	2
0	6070	609.109702218037	2
0	6076	609.511448801906	3
0	6080	609.718087462569	1
0	6101	612.3	3
0	6104	612.5	1
0	6108	612.700632076151	1
0	6113	613.009889097636	2
0	6117	613.215961591408	1
0	6138	616.3	3
0	6142	616.6	2
0	6147	616.906330620094	2
0	6152	617.208714752846	2
0	6172	620.2	2
0	6177	620.6	3
0	6183	620.913847386	2
0	6188	621.219768192666	2
0	6206	624	0
0	6210	624.3	2
0	6216	624.701334394309	3
0	6223	625.204879454904	4
0	6227	625.405847494426	1
0	6231	625.612417692186	1
0	6251	628.2	2
0	6257	628.7	4
0	6261	628.906591764756	1
0	6265	629.110619432325	1
0	6269	629.314591999863	1
0	6276	629.814967650346	4
0	6282	630.024960430223	1
0	6287	630.334806746496	2
0	6309	634.4	4
0	6314	634.8	3
0	6320	635.206375826962	3
0	6324	635.413096237538	1
0	6342	638	0
0	6348	638.5	4
0	6356	639.108897936546	5
0	6362	639.518467266251	3
0	6367	639.826112886021	2
0	6373	640.027247745193	1
0	6378	640.334230230011	2
0	6397	644.1	1
0	6402	644.407652705886	2
0	6406	644.608279065949	1
0	6413	645.108495953181	4
0	6418	645.410914970233	2
0	6438	648.2	2
0	6442	648.5	2
0	6448	648.908710825699	3
0	6455	649.416441661237	4
0	6475	652.2	2
0	6479	652.403251179114	1
0	6483	652.604321220498	1
0	6489	653.010155262357	3
0	6493	653.216052209519	1
0	6512	656.1	1
0	6517	656.5	3
0	6522	656.800525081621	2
0	6526	657.009883402413	1
0	6547	660.3	3
0	6551	660.6	2
0	6557	661.007809311354	3
0	6564	661.413728002258	3
0	6585	664.3	3
0	6588	664.5	1
0	6592	664.706567619531	1
0	6599	665.124175841323	3
0	6604	665.424265153968	2
0	6623	668.1	1
0	6626	668.3	1
0	6634	668.809635220269	4
0	6638	669.012050790669	1
0	6642	669.213016419497	1
0	6662	672.2	2
0	6665	672.4	1
0	6671	672.800585349223	3
0	6677	673.203296483158	3
0	6681	673.408002692171	1
0	6702	676.3	3
0	6708	676.8	4
0	6713	677.105083903863	2
0	6717	677.314883527061	1
0	6721	677.524556120118	1
0	6725	677.72879318367	1
0	6729	677.929792768792	1
0	6735	678.138364017973	1
0	6740	678.339933678229	1
0	6747	678.747483263605	3
0	6751	678.952065853697	1
0	6773	682.4	4
0	6777	682.7	2
0	6783	683.106713834835	3
0	6787	683.307952279024	1
0	6808	686.3	3
0	6815	686.9	5
0	6823	687.41020584053	4
0	6827	687.61419745199	1
0	6836	688.114417188347	4
0	6857	692.3	3
0	6862	692.7	3
0	6867	693.000700421887	2
0	6872	693.306954003872	2
0	6893	696.3	3
0	6898	696.7	3
0	6903	697.007263424622	2
0	6907	697.210504251569	1
0	6913	697.615873481586	3
0	6917	697.819035681454	1
0	6923	698.02014045256	1
0	6927	698.228473610661	1
0	6947	702.2	2
0	6951	702.4032104299	1
0	6957	702.810349701905	3
0	6963	703.116264977933	2
0	6968	703.423637520361	2
0	6972	703.627634120557	1
0	6993	706.3	3
0	6997	706.6	2
0	7001	706.807032174931	1
0	7009	707.220333163603	3
0	7013	707.429924586103	1
0	7020	707.938817459272	4
0	7040	710.2	2
0	7044	710.5	2
0	7051	711.000291902406	4
0	7055	711.200303978127	1
0	7077	714.4	4
0	7081	714.7	2
0	7086	715.005241838551	2
0	7094	715.613205032683	5
0	7103	716.11685603144	4
0	7109	716.428682439085	2
0	7114	716.732234691127	2
0	7122	717.240909321621	4
0	7142	720.2	2
0	7145	720.4	1
0	7152	720.903732159568	4
0	7157	721.210066307833	2
0	7165	721.616174027221	3
0	7184	724.1	1
0	7188	724.4	2
0	7192	724.600086899187	1
0	7196	724.80108703981	1
0	7217	728.3	3
0	7221	728.505137597348	1
0	7226	728.80579364604	2
0	7233	729.308020225368	4
0	7255	732.4	4
0	7258	732.6	1
0	7263	732.905596823992	2
0	7267	733.114708795591	1
0	7271	733.322443351018	1
0	7276	733.535856965564	1
0	7297	736.3	3
0	7301	736.6	2
0	7308	737.011459110595	3
0	7313	737.315728544724	2
0	7318	737.52402781032	1
0	7340	740.4	4
0	7344	740.7	2
0	7351	741.207510216482	4
0	7357	741.520665530614	2
0	7363	741.92226946604	3
0	7369	742.122558991564	1
0	7390	746.3	3
0	7396	746.8	4
0	7400	747.008711025295	1
0	7407	747.517494750224	4
0	7411	747.724170683285	1
0	7417	747.942879198329	1
0	7437	750.2	2
0	7442	750.6	3
0	7450	751.204558984376	5
0	7455	751.509569616058	2
0	7461	751.91599313356	3
0	7467	752.119757025095	1
0	7487	756.2	2
0	7491	756.5	2
0	7495	756.701319032479	1
0	7503	757.115101295005	3
0	7523	760.2	2
0	7530	760.8	5
0	7536	761.208518537057	3
0	7541	761.50969234002	2
0	7546	761.813647778306	2
0	7564	764	0
0	7569	764.4	3
0	7573	764.609707314406	1
0	7578	764.917175678167	2
0	7583	765.217214281694	2
0	7602	768.1	1
0	7605	768.3	1
0	7613	768.901700996404	5
0	7620	769.402514692378	4
0	7627	769.818197277829	3
0	7633	770.027965295876	1
0	7638	770.241247430453	1
0	7644	770.650911330142	3
0	7664	774.2	2
0	7669	774.6	3
0	7675	775.008363640296	3
0	7681	775.413858646034	3
0	7687	775.818011445473	3
0	7694	776.127319632673	2
0	7698	776.331475715294	1
0	7704	776.736683329631	3
0	7724	780.2	2
0	7730	780.7	4
0	7737	781.200329013373	4
0	7741	781.404048200884	1
0	7760	784.1	1
0	7763	784.3	1
0	7770	784.618719935224	2
0	7776	785.027307709904	3
0	7797	788.3	3
0	7803	788.8	4
0	7807	789.006677148912	1
0	7814	789.510038171596	4
0	7819	789.815756607939	2
0	7839	792.2	2
0	7844	792.6	3
0	7848	792.809918903291	1
0	7853	793.113961968595	2
0	7859	793.517729381265	3
0	7866	793.936344306888	3
0	7887	796.3	3
0	7893	796.8	4
0	7899	797.20231070053	3
0	7903	797.404759595323	1
0	7907	797.610148280394	1
0	7912	797.912312853004	2
0	7920	798.32004320279	3
0	7940	802.2	2
0	7946	802.7	4
0	7953	803.202940766622	4
0	7958	803.507769682853	2
0	7963	803.812300625339	2
0	7970	804.114240853472	2
0	7976	804.519180431796	3
0	7995	808.1	1
0	7999	808.4	2
0	8003	808.604378142529	1
0	8008	808.905768869472	2
0	8012	809.115518767581	1
0	8019	809.619787811174	4
0	8023	809.822796050419	1
0	8031	810.23122459934	3
0	8051	814.2	2
0	8054	814.4	1
0	8060	814.809754241404	3
0	8069	815.322180955536	4
0	8091	818.4	4
0	8097	818.9	4
0	8101	819.104069219343	1
0	8106	819.405145396401	2
0	8112	819.719605080178	2
0	8131	822.1	1
0	8135	822.4	2
0	8139	822.609353018903	1
0	8143	822.810528275342	1
0	8149	823.218250931114	3
0	8156	823.728009769815	4
0	8177	826.3	3
0	8183	826.8	4
0	8189	827.209315050384	3
0	8194	827.418475209748	1
0	8200	827.723223861274	2
0	8208	828.128057796677	3
0	8214	828.528305327465	3
0	8235	832.3	3
0	8238	832.5	1
0	8244	832.90408302908	3
0	8248	833.111014557151	1
0	8253	833.414788622884	2
0	8274	836.3	3
0	8281	836.9	5
0	8286	837.205372356513	2
0	8292	837.614915694639	3
0	8300	838.019471480236	3
0	8306	838.422990842617	3
0	8328	842.4	4
0	8332	842.7	2
0	8336	842.90373039775	1
0	8340	843.107304644225	1
0	8347	843.613986983975	4
0	8352	843.920203638366	2
0	8371	846.1	1
0	8378	846.7	5
0	8382	846.902331737556	1
0	8388	847.303456010773	3
0	8394	847.704269727993	3
0	8398	847.906394071593	1
0	8419	850.3	3
0	8425	850.8	4
0	8430	851.103676261741	2
0	8435	851.411128591338	2
0	8455	854.2	2
0	8458	854.4	1
0	8463	854.701446911459	2
0	8467	854.901452371167	1
0	8488	858.3	3
0	8491	858.5	1
0	8498	858.717533367079	1
0	8504	858.926592123296	1
0	8513	859.542319257016	5
0	8534	862.3	3
0	8539	862.7	3
0	8543	862.906057119544	1
0	8548	863.213329618666	2
0	8555	863.714486237354	4
0	8562	864.021119416541	2
0	8581	868.1	1
0	8586	868.5	3
0	8592	868.908119385626	3
0	8600	869.413170795777	4
0	8622	872.4	4
0	8625	872.6	1
0	8630	872.905171372769	2
0	8636	873.308100258421	3
0	8658	876.4	4
0	8664	876.9	4
0	8671	877.40456687594	4
0	8675	877.60629638943	1
0	8695	880.2	2
0	8700	880.6	3
0	8705	880.905459175978	2
0	8709	881.110190605751	1
0	8714	881.416078722788	2
0	8732	884	0
0	8737	884.4	3
0	8743	884.804097262045	3
0	8747	885.008315454261	1
0	8754	885.512050564352	4
0	8760	885.919080081458	3
0	8783	888.5	5
0	8786	888.7	1
0	8790	888.907372785776	1
0	8795	889.216095810883	2
0	8802	889.716147340521	4
0	8823	892.3	3
0	8829	892.8	4
0	8834	893.100340707644	2
0	8838	893.307445265187	1
0	8858	896.2	2
0	8862	896.5	2
0	8867	896.805101280033	2
0	8871	897.006504440267	1
0	8877	897.407781326711	3
0	8881	897.611371279487	1
0	8902	900.3	3
0	8907	900.7	3
0	8911	900.906308710651	1
0	8918	901.409137079169	4
0	8925	901.720533395913	2
0	8943	904	0
0	8949	904.5	4
0	8954	904.801478013345	2
0	8959	905.104014270426	2
0	8979	908.2	2
0	8985	908.7	4
0	8991	909.10491892232	3
0	8996	909.412526357959	2
0	9000	909.621515968896	1
0	9019	912.1	1
0	9023	912.4	2
0	9028	912.705873753118	2
0	9033	913.009136449414	2
0	9054	916.3	3
0	9059	916.7	3
0	9064	917.007963967665	2
0	9071	917.414958821238	3
0	9094	920.5	5
0	9098	920.8	2
0	9103	921.107317441881	2
0	9108	921.407777577633	2
0	9113	921.715053047592	2
0	9117	921.916950583779	1
0	9124	922.219849718264	2
0	9146	926.4	4
0	9150	926.7	2
0	9156	927.010376900703	2
0	9160	927.217222428068	1
0	9166	927.52736010234	2
0	9186	930.2	2
0	9193	930.8	5
0	9199	931.201415064812	3
0	9203	931.411389426067	1
0	9207	931.62004888076	1
0	9211	931.823677760734	1
0	9218	932.128090975441	2
0	9239	936.3	3
0	9242	936.5	1
0	9248	936.904969147478	3
0	9254	937.310647607521	3
0	9258	937.512369564616	1
0	9279	940.3	3
0	9283	940.6	2
0	9287	940.808667885367	1
0	9294	941.317994540703	4
0	9298	941.524271888247	1
0	9320	944.4	4
0	9325	944.8	3
0	9330	945.108886154943	2
0	9335	945.41699454107	2
0	9341	945.823967283977	3
0	9350	946.232082643607	3
0	9356	946.634197191549	3
0	9362	947.036843386888	3
0	9383	950.3	3
0	9387	950.6	2
0	9392	950.909185464479	2
0	9396	951.116597781152	1
0	9400	951.317798982915	1
0	9404	951.527168261711	1
0	9409	951.830512999095	2
0	9429	954.2	2
0	9434	954.501644884101	2
0	9440	954.910643551486	3
0	9448	955.518125791171	5
0	9469	958.3	3
0	9475	958.8	4
0	9482	959.300964508613	4
0	9488	959.613463689106	2
0	9508	962.2	2
0	9512	962.5	2
0	9517	962.803063826498	2
0	9522	963.106487250206	2
0	9527	963.416374740222	2
0	9549	966.4	4
0	9555	966.9	4
0	9560	967.112170931442	1
0	9565	967.417344192281	2
0	9570	967.722990857619	2
0	9574	967.927840514136	1
0	9593	970.1	1
0	9597	970.4	2
0	9602	970.706144380606	2
0	9606	970.914412996628	1
0	9611	971.128985069108	1
0	9617	971.531425393421	3
0	9637	974.2	2
0	9642	974.6	3
0	9646	974.802168702536	1
0	9653	975.304548815278	4
0	9657	975.513580311726	1
0	9678	978.3	3
0	9681	978.5	1
0	9688	979.007274807456	4
0	9693	979.308272136915	2
0	9698	979.614118062653	2
0	9703	979.918873953807	2
0	9709	980.126440490972	1
0	9730	984.3	3
0	9733	984.5	1
0	9738	984.801509348968	2
0	9743	985.111439362099	2
0	9747	985.314742032501	1
0	9751	985.516387359653	1
0	9770	988.1	1
0	9775	988.5	3
0	9780	988.802273624511	2
0	9786	989.10643912403	2
0	9792	989.508865497292	3
0	9815	992.5	5
0	9820	992.9	3
0	9825	993.203108399785	2
0	9829	993.408145877926	1
0	9850	996.3	3
0	9854	996.6	2
0	9859	996.907277712675	2
0	9864	997.215222777211	2
0	9885	1000.3	3
0	9890	1000.7	3
0	9895	1000.919484073512	1
0	9903	1001.521107652954	5
0	9909	1001.73994114757	1
0	9918	1002.14614687237	3
0	9924	1002.549601928962	3
0	9930	1002.951674888732	3
0	9935	1003.25647549759	2
0	9954	1006.1	1
0	9958	1006.4	2
0	9962	1006.606040775461	1
0	9967	1006.819891422331	1
0	9988	1010.3	3
0	9992	1010.6	2
0	9999	1011.101114960582	4
0	10003	1011.306030874866	1
0	10022	1014.1	1
0	10025	1014.3	1
0	10030	1014.603165007431	2
0	10038	1015.117641743679	4
0	10044	1015.522553754103	3
0	10049	1015.82985203052	2
0	10069	1018.2	2
0	10075	1018.7	4
0	10081	1019.109025802081	3
0	10086	1019.416373939853	2
0	10108	1022.4	4
0	10113	1022.8	3
0	10119	1023.109504336341	2
0	10125	1023.513174798759	3
0	10146	1026.3	3
0	10152	1026.8	4
0	10158	1027.205349082001	3
0	10163	1027.506104747605	2
0	10167	1027.709007228031	1
0	10171	1027.917295637089	1
0	10178	1028.128241995554	1
0	10184	1028.534152649358	3
0	10205	1032.3	3
0	10209	1032.6	2
0	10214	1032.901363570021	2
0	10219	1033.20860298399	2
0	10224	1033.515722889754	2
0	10230	1033.921314627568	3
0	10250	1036.2	2
0	10253	1036.4	1
0	10260	1036.903609344672	4
0	10265	1037.212347666452	2
0	10270	1037.518641433532	2
0	10275	1037.826981250005	2
0	10297	1040.4	4
0	10302	1040.8	3
0	10307	1041.104150326177	2
0	10312	1041.404272037813	2
0	10318	1041.804592594028	3
0	10337	1044.1	1
0	10341	1044.4	2
0	10346	1044.70506862956	2
0	10352	1045.112023884972	3
0	10372	1048.2	2
0	10375	1048.4	1
0	10381	1048.614940444865	1
0	10387	1049.019737516439	3
0	10394	1049.427903653168	3
0	10400	1049.743654623975	2
0	10420	1052.2	2
0	10424	1052.5	2
0	10430	1052.904758261912	3
0	10434	1053.114066656415	1
0	10440	1053.521154360293	3
0	10444	1053.726612153702	1
0	10464	1056.2	2
0	10468	1056.5	2
0	10472	1056.705200814208	1
0	10477	1057.006359428788	2
0	10482	1057.306666039276	2
0	10486	1057.509109800009	1
0	10492	1057.911353936181	3
0	10510	1060	0
0	10517	1060.6	5
0	10521	1060.805398133806	1
0	10525	1061.006472859474	1
0	10530	1061.31515540936	2
0	10553	1064.5	5
0	10556	1064.7	1
0	10563	1065.200209500652	4
0	10572	1065.711779147804	4
0	10593	1068.3	3
0	10596	1068.5	1
0	10600	1068.70588638999	1
0	10604	1068.908200207797	1
0	10608	1069.115732609	1
0	10612	1069.32063371169	1
0	10616	1069.522992053924	1
0	10636	1072.2	2
0	10640	1072.5	2
0	10646	1072.811773976889	2
0	10651	1073.113113465798	2
0	10656	1073.420896227457	2
0	10661	1073.730206993359	2
0	10670	1074.238690446016	4
0	10674	1074.445398062594	1
0	10693	1078.1	1
0	10697	1078.4	2
0	10703	1078.80995815294	3
0	10707	1079.011245119079	1
0	10711	1079.212538676735	1
0	10715	1079.416041928625	1
0	10720	1079.72075650182	2
0	10742	1082.4	4
0	10748	1082.9	4
0	10753	1083.206444790991	2
0	10758	1083.516094040448	2
0	10767	1084.018606160062	4
0	10772	1084.325800050648	2
0	10777	1084.63030229537	2
0	10798	1088.3	3
0	10802	1088.6	2
0	10807	1088.902653033244	2
0	10811	1089.107155124903	1
0	10817	1089.50842806511	3
0	10826	1090.017226631954	4
0	10845	1094.1	1
0	10850	1094.5	3
0	10855	1094.803167306638	2
0	10860	1095.107694611604	2
0	10864	1095.313961676376	1
0	10871	1095.817222853287	4
0	10891	1098.2	2
0	10895	1098.5	2
0	10901	1098.90430115987	3
0	10907	1099.306296455172	3
0	10911	1099.512817701137	1
0	10916	1099.817744025439	2
0	10937	1102.3	3
0	10941	1102.6	2
0	10947	1103.00969205877	3
0	10951	1103.210354130535	1
0	10972	1106.3	3
0	10976	1106.6	2
0	10981	1106.904837528648	2
0	10987	1107.211536250915	2
0	11006	1110.1	1
0	11011	1110.5	3
0	11015	1110.70200637673	1
0	11019	1110.905112668915	1
0	11023	1111.11440742075	1
0	11029	1111.330697747393	1