file 215524 1367232621                                          
version 2
run Join-38-20130429-12:50:18-17679
attr configname Join
attr datetime 20130429-12:50:18
attr experiment "\"Join\""
attr inifile omnetpp.ini
attr iterationvars $0=256
attr iterationvars2 "$0=256, $repetition=8"
attr measurement $0=256
attr network Network
attr processid 17679
attr repetition 8
attr replication #8
attr resultdir results
attr runnumber 38
attr seedset 38

vector 38  Network.dyn_peer[0]  lookupHopsSig:vector  ETV
38	441 215083 951 105524 20.1 9829.602468378417 8170 0 32 60414 580264
