version 2
run Join-65-20130429-12:51:56-17679
attr configname Join
attr datetime 20130429-12:51:56
attr experiment "\"Join\""
attr inifile omnetpp.ini
attr iterationvars $0=2048
attr iterationvars2 "$0=2048, $repetition=5"
attr measurement $0=2048
attr network Network
attr processid 17679
attr repetition 5
attr replication #5
attr resultdir results
attr runnumber 65
attr seedset 65

vector 65  Network.dyn_peer[0]  lookupHopsSig:vector  ETV
65	5896	20.635358591031	28
65	5916	22.238793540604	15
65	5996	31.8	58
65	6028	34.5	26
65	6041	35.600181568784	10
65	6063	37.403556468623	17
65	6113	41.805369410923	43
65	6133	43.415137444565	15
65	6149	44.619827953859	11
65	6169	46.228897125574	15
65	6220	50.735299011892	44
65	6271	57.1	31
65	6280	57.9	7
65	6296	59.103514000454	11
65	6309	60.012036405377	8
65	6342	62.914656884967	28
65	6363	64.617358298465	16
65	6386	66.521432987165	18
65	6405	68.030109362187	14
65	6414	68.738908024517	6
65	6428	69.938970323715	11
65	6449	71.645585872284	16
65	6457	72.048886795113	3
65	6466	72.75428875774	6
65	6484	74.155787447007	13
65	6524	77.764807898332	35
65	6568	82.4	24
65	6597	85	25
65	6617	86.606845354903	15
65	6640	88.512007133131	18
65	6650	89.312874234061	7
65	6667	90.614634200891	12
65	6688	92.322250116791	16
65	6710	94.126584905728	17
65	6724	95.327086075136	11
65	6787	102.1	41
65	6812	104.3	21
65	6836	106.303773460525	19
65	6851	107.610862975569	12
65	6873	109.414866649272	17
65	6890	110.719731543435	12
65	6908	112.124734849662	13
65	6919	113.028179620099	8
65	6989	121	50
65	7025	124.1	30
65	7089	129.901728692566	57
65	7108	131.403565419666	14
65	7166	136.406698501115	49
65	7221	141.314346283257	48
65	7264	146.3	23
65	7287	148.3	19
65	7302	149.60169681099	12
65	7323	151.307756114145	16
65	7345	153.109852880604	17
65	7359	154.115413507634	9
65	7378	155.821715433978	16
65	7407	159.4	14
65	7420	160.4	9
65	7443	162.306950616098	18
65	7468	164.415327017681	20
65	7505	167.721195487814	32
65	7536	171.3	13
65	7552	172.6	12
65	7567	173.90125260818	12
65	7597	176.309664298798	23
65	7623	178.517422321226	21
65	7627	178.719186663985	1
65	7652	180.824841395682	20
65	7677	182.925918402078	20
65	7694	184.233644754341	12
65	7720	186.441495428794	21
65	7736	187.846684744193	13
65	7767	191.3	13
65	7780	192.3	9
65	7808	194.706239269853	23
65	7827	196.207569046632	14
65	7839	197.215350888405	9
65	7874	200.121879003849	28
65	7886	201.12914059519	9
65	7907	202.837910052562	16
65	7941	205.845780193378	29
65	7966	207.953911373401	20
65	8002	210.962554571598	29
65	8061	217.9	39
65	8069	218.4	4
65	8076	218.905678604475	4
65	8083	219.412651591493	4
65	8109	221.614314663041	21
65	8121	222.42290920452	7
65	8129	223.03188688229	5
65	8168	228.2	22
65	8197	230.8	25
65	8210	231.902988041739	10
65	8218	232.308206576637	3
65	8230	233.3146225314	9
65	8250	234.918491382444	15
65	8266	236.118861975419	11
65	8293	240.9	9
65	8315	242.8	18
65	8342	245.101577625682	22
65	8351	245.810220478409	6
65	8379	248.011827460375	21
65	8405	250.21782681855	21
65	8439	253.227622974215	29
65	8486	257.33001459497	40
65	8510	259.334277131422	19
65	8534	261.335474557815	19
65	8552	262.738906955347	13
65	8583	265.441599661734	26
65	8608	267.551226621936	20
65	8711	273	30
65	8729	274.5	14
65	8748	276.009023945429	14
65	8765	277.515102490177	14
65	8789	279.521777752951	19
65	8798	280.023898291735	4
65	8806	280.624444778224	5
65	8831	282.727336337352	20
65	8857	287	10
65	8899	290.7	36
65	8917	292.1070608047	13
65	8944	294.408642100412	22
65	8957	295.518009387841	10
65	8979	297.32008812843	17
65	9050	301.6	16
65	9105	304.4	27
65	9142	307.700842074288	32
65	9164	309.505474119015	17
65	9196	312.114992783266	25
65	9219	314.018814400889	18
65	9234	315.327790025489	12
65	9257	317.232139588359	18
65	9291	320.038038771531	27
65	9332	326.1	21
65	9337	326.5	3
65	9350	327.602060751847	10
65	9375	329.706058263366	20
65	9386	330.410543951016	6
65	9409	332.318299816268	18
65	9476	338.227085857848	58
65	9508	343.4	14
65	9518	344.1	6
65	9531	345.206248144875	10
65	9536	345.511836692427	2
65	9553	346.817329804898	12
65	9572	348.322423232205	14
65	9587	349.624497933909	12
65	9640	355.6	36
65	9662	357.5	18
65	9685	359.405772852913	18
65	9704	360.907966203439	14
65	9731	363.211379765442	22
65	9753	365.012577221672	17
65	9764	365.915865928236	8
65	9809	370.8	28
65	9829	372.5	16
65	9863	375.501900538385	29
65	9876	376.409257758825	8
65	9890	377.614803497024	11
65	9909	379.116169020038	14
65	9914	379.42155904856	2
65	9941	381.729433172917	22
65	9975	384.537371719515	27
65	10000	388.7	7
65	10034	391.8	30
65	10059	393.909252725294	20
65	10076	395.212882928903	12
65	10098	397.01771934995	17
65	10122	399.01801402305	19
65	10147	401.119712979239	20
65	10235	410.7	67
65	10252	412.1	13
65	10266	413.305925939748	11
65	10301	416.210670275	28
65	10334	419.112141506775	28
65	10369	422.017990621971	28
65	10396	424.318451743791	22
65	10446	431	30
65	10464	432.5	14
65	10489	434.608879099222	20
65	10513	436.615527808269	19
65	10537	438.623175519584	19
65	10566	441.124082115737	24
65	10585	442.629784375745	14
65	10603	444.034803889558	13
65	10659	449.043469700628	49
65	10705	454.6	26
65	10739	457.7	30
65	10753	458.707827836787	9
65	10771	460.116658822418	13
65	10810	463.619159615259	34
65	10829	465.128819971862	14
65	10845	466.336435208003	11
65	10854	467.040143051607	6
65	10881	469.343718860848	22
65	10915	473.6	16
65	10934	475.2	15
65	10954	476.808380289154	15
65	10962	477.414870144428	5
65	10972	478.01559180999	5
65	11000	480.420610580898	23
65	11015	481.728564439331	12
65	11026	482.43358395089	6
65	11033	482.941979762137	4
65	11060	485.251560683658	22
65	11093	489.5	15
65	11107	490.6	10
65	11118	491.506218008531	8
65	11136	492.914802835659	13
65	11162	495.123642336123	21
65	11178	496.33082107332	11
65	11186	496.939536973265	5
65	11220	499.94499317847	29
65	11266	504.6	26
65	11317	509.2	45
65	11330	510.104267424677	8
65	11355	512.212597698084	20
65	11366	513.122383057401	8
65	11388	514.926476758697	17
65	11400	515.931993899882	9
65	11414	516.933157261976	9
65	11458	522.6	26
65	11483	524.8	21
65	11501	526.200192401011	13
65	11527	528.407317632981	21
65	11560	531.315456016926	28
65	11578	532.718241357135	13
65	11605	535.020082220537	22
65	11663	540.026968351362	49
65	11679	541.432944944155	13
65	11700	543.133897847275	16
65	11750	549	30
65	11775	551.2	21
65	11795	552.80415659951	15
65	11816	554.508120877558	16
65	11839	556.413609279377	18
65	11874	559.51585449481	30
65	11920	564.6	26
65	11946	566.9	22
65	11965	568.405319053307	14
65	11988	570.309655088844	18
65	12018	572.917259670706	25
65	12047	575.423511559246	24
65	12061	576.426728818968	9
65	12093	579.234481447771	27
65	12114	580.940486333774	16
65	12154	584.340853901881	33
65	12203	590.9	29
65	12256	595.7	47
65	12282	597.9040453172	21
65	12303	599.610077248978	16
65	12317	600.617283822601	9
65	12332	601.925743382969	12
65	12350	603.329548890476	13
65	12367	604.638952533343	12
65	12385	606.039757153022	13
65	12452	611.3	13
65	12497	613.2	18
65	12608	618.509202886791	52
65	12612	618.714174901246	1
65	12620	619.320069677065	5
65	12632	620.12019164326	7
65	12657	622.226999442215	20
65	12674	623.733597624158	14
65	12710	627.8	18
65	12734	629.9	20
65	12775	633.40144221073	34
65	12795	635.004236687952	15
65	12815	636.613013532393	15
65	12827	637.620298673469	9
65	12839	638.426087358736	7
65	12872	641.328480695574	28
65	12887	642.434755418071	10
65	12909	644.24395652721	17
65	12925	645.646576115303	13
65	12975	651.2	32
65	13004	653.8	25
65	13017	654.707592301282	8
65	13040	656.615061767973	18
65	13052	657.615440112481	9
65	13077	659.716977914439	20
65	13142	665.420931521344	56
65	13157	666.525626417032	10
65	13167	667.326145774136	7
65	13184	668.627002935128	12
65	13263	673.9	19
65	13312	676	20
65	13364	678.20319766717	21
65	13438	681.510566045478	32
65	13468	682.817000096136	12
65	13490	683.823298510194	9
65	13538	685.825582701496	19
65	13591	688.033287458149	21
65	13612	689.938439581721	18
65	13652	693.341650798712	33
65	13671	694.850298697033	14
65	13687	696.056349478794	11
65	13702	697.362169956082	12
65	13721	698.867270424833	14
65	13740	700.369283957627	14
65	13763	702.271545176528	18
65	13841	707.8	18
65	13892	710	21
65	13942	712.201940402036	21
65	13976	713.906254424316	16
65	13998	715.708605215878	17
65	14007	716.217027992764	4
65	14021	717.421421781705	11
65	14039	718.826937753331	13
65	14052	719.934416147678	10
65	14067	721.041340737399	10
65	14075	721.650219246803	5
65	14089	722.652033131217	9
65	14101	723.660420728976	9
65	14185	728	20
65	14226	729.9	18
65	14274	732.009611061315	20
65	14306	733.612793215314	15
65	14322	734.817321304495	11
65	14342	736.422550616795	15
65	14351	737.124623879035	6
65	14371	738.731918750441	15
65	14398	741.038944673725	22
65	14420	742.847027038201	17
65	14442	744.653365416482	17
65	14463	746.361724375001	16
65	14478	747.665621409659	12
65	14512	751.6	16
65	14526	752.7	10
65	14553	755.008502876427	22
65	14576	756.913191564403	18
65	14599	758.821546284131	18
65	14625	761.026135866619	21
65	14650	763.133824597101	20
65	14676	765.340085946642	21
65	14715	770.1	21
65	14737	772	18
65	14753	773.401670059955	13
65	14777	775.404978462494	19
65	14803	777.610285399527	21
65	14843	781.012433705954	33
65	14886	784.718127549153	36
65	14913	787.026507736367	22
65	14971	793.8	38
65	14990	795.4	15
65	15003	796.30154796737	8
65	15034	799.008585230947	26
65	15048	800.009461257838	9
65	15069	801.911307122321	18
65	15083	802.913729958208	9
65	15103	804.520290654732	15
65	15129	808.8	8
65	15138	809.6	7
65	15152	810.601230016027	9
65	15177	812.7052853147	20
65	15190	813.814003479102	10
65	15222	816.414645994222	25
65	15250	818.822865725185	23
65	15290	824.3	23
65	15300	825.2	8
65	15317	826.50744712826	12
65	15342	828.613045009515	20
65	15363	830.317858600714	16
65	15408	834.221937018243	38
65	15433	836.330895072213	20
65	15457	838.336510046385	19
65	15525	844.344585855889	59
65	15576	848.6	6
65	15605	849.9	12
65	15655	852.001561150706	20
65	15685	853.405295266796	13
65	15715	855.210950030123	17
65	15724	855.918778993179	6
65	15767	859.627322298727	36
65	15798	862.1338484036	24
65	15813	863.434050624606	12
65	15845	866.03445123797	25
65	15865	867.841689239162	17
65	15897	870.447921911353	25
65	15923	872.657659197296	21
65	15990	878.558347454445	58
65	16069	883.9	19
65	16116	886	20
65	16142	887.204051964359	11
65	16162	888.505259824736	12
65	16188	890.711759154452	21
65	16205	892.016196577663	12
65	16245	895.61928875413	35
65	16271	897.819667295119	21
65	16296	899.928477660558	20
65	16331	902.836977873466	28
65	16355	904.845117207179	19
65	16398	908.550902111418	36
65	16453	912.8	8
65	16494	914.6	17
65	16540	916.7032452221	20
65	16564	917.705040652665	9
65	16592	918.905123115744	11
65	16672	923.6	16
65	16690	925.1	14
65	16696	925.506796732805	3
65	16719	927.413805782722	18
65	16731	928.22303827545	7
65	16742	929.13124431494	8
65	16760	930.533612000682	13
65	16798	933.934828570101	33
65	16816	935.342108178632	13
65	16838	937.145165349314	17
65	16924	942.2	22
65	16940	943.7	14
65	16955	944.801124077897	10
65	16977	946.601670538539	17
65	17000	948.502446693997	18
65	17024	950.505142315686	19
65	17045	952.208447816827	16
65	17104	960	40
65	17112	960.7	6
65	17136	962.706825416269	19
65	17159	964.610122338667	18
65	17166	965.11570555955	4
65	17175	965.818093957799	6
65	17198	967.719902089573	18
65	17232	971.9	19
65	17252	973.6	16
65	17264	974.406827999853	7
65	17276	975.415861112884	9
65	17293	976.722940784007	12
65	17365	983.131850281079	63
65	17380	984.241658138719	10
65	17397	985.742761479977	14
65	17418	987.44473619217	16
65	17428	988.048106577638	5
65	17453	990.157672668175	20
65	17476	994.5	5
65	17490	995.8	12
65	17498	996.203497161976	3
65	17507	996.905403721757	6
65	17514	997.41089340681	4
65	17527	998.317069857476	8
65	17537	999.123446683063	7
65	17566	1001.628571175165	24
65	17607	1006.3	23
65	17630	1008.3	19
65	17648	1009.903768549815	15
65	17665	1011.209826028214	12
65	17679	1012.219662587903	9
65	17701	1014.020359204313	17
65	17715	1015.222733093145	11
65	17736	1016.929638146831	16
65	17792	1023.8	38
65	17808	1025.1	12
65	17829	1026.806396581656	16
65	17838	1027.50649568906	6
65	17863	1029.609837826443	20
65	17905	1033.210119288469	35
65	17919	1034.21042639459	9
65	17948	1036.716582681047	24
65	17984	1039.925601851867	31
65	18025	1043.425835582489	34
65	18050	1045.530895279197	20
65	18071	1047.236025048166	16
65	18096	1050.7	7
65	18138	1054.4	36
65	18148	1055.20215528079	7
65	18168	1056.806463270361	15
65	18184	1058.013094137919	11
65	18201	1059.516970856148	14
65	18221	1061.124361143203	15
65	18241	1062.731878942721	15
65	18276	1067.9	19
65	18305	1070.3	23
65	18323	1071.903226872193	15
65	18355	1074.509870020835	25
65	18379	1076.514738327676	19
65	18411	1079.322528843152	27
65	18440	1081.829750676894	24
65	18482	1086.5	25
65	18510	1089	24
65	18547	1092.103809776993	30
65	18579	1094.905006298087	27
65	18600	1096.612488529725	16
65	18621	1098.316371798856	16
65	18649	1100.718442136767	23
65	18681	1103.527653567067	27
65	18719	1106.735375717675	31
65	18751	1111.4	14
65	18796	1115.4	39
65	18819	1117.306605870611	18
65	18855	1120.310974137279	29
65	18882	1122.620814395776	22
65	18903	1124.327797678982	16
65	18916	1125.437494495101	10
65	18936	1127.040965156634	15
65	18963	1129.350760799226	22
65	18978	1130.45299763236	10
65	18989	1131.35635044205	8
65	19029	1136.2	22
65	19041	1137.3	10
65	19057	1138.505794654372	11
65	19067	1139.312560843841	7
65	19091	1141.313041357918	19
65	19105	1142.315126720823	9
65	19113	1142.921858126227	5
65	19122	1143.630410270648	6
65	19147	1145.733920893877	20
65	19158	1146.44259498168	6
65	19196	1152	20
65	19210	1153.3	12
65	19269	1158.407145116378	50
65	19283	1159.608304095326	11
65	19302	1161.110723453156	14
65	19325	1163.015199168304	18
65	19339	1164.019315901489	9
65	19349	1164.829041077158	7
65	19366	1166.136656270137	12
65	19387	1170.5	5
65	19394	1171.1	5
65	19413	1172.601239439784	14
65	19431	1174.006009217688	13
65	19445	1175.215584946473	11
65	19454	1175.921777397168	6
65	19473	1177.423517399751	14
65	19527	1183.7	37
65	19539	1184.6	8
65	19553	1185.801798249024	11
65	19566	1186.711023754672	8
65	19578	1187.717041477809	9
65	19594	1188.925309170821	11
65	19610	1190.134022741561	11
65	19642	1195.7	17
65	19666	1197.8	20
65	19675	1198.309021235194	4
65	19690	1199.610745956471	12
65	19714	1201.61784671767	19
65	19734	1203.22690858804	15
65	19758	1205.23176681059	19
65	19785	1208.9	9
65	19795	1209.8	8
65	19815	1211.409846089859	15
65	19826	1212.117493233046	6
65	19843	1213.622462642866	14
65	19883	1217.025707343251	33
65	19902	1218.534402256617	14
65	19911	1219.243885779196	6
65	20067	1228.5	65
65	20088	1230.3	17
65	20102	1231.501892193895	11
65	20108	1231.911298348916	3
65	20146	1235.114322299233	31
65	20162	1236.323108744774	11
65	20199	1239.630927949784	32
65	20231	1242.235936687438	25
65	20255	1246.6	6
65	20282	1249	23
65	20301	1250.50392629692	14
65	20334	1253.406565234532	28
65	20361	1255.71234690792	22
65	20390	1258.017843026575	22
65	20397	1258.519887029105	4
65	20410	1259.623348583472	10
65	20517	1265.1	31
65	20554	1266.8	16
65	20602	1268.808707700017	19
65	20622	1269.710916800602	8
65	20644	1270.514749559523	7
65	20674	1272.8228689152	22
65	20711	1277.9	19
65	20732	1279.7	17
65	20755	1281.60009204613	18
65	20777	1283.40321778498	17
65	20803	1285.611377367525	21
65	20820	1286.918331208441	12
65	20828	1287.526167073615	5
65	20852	1290.6	6
65	20872	1292.3	16
65	20893	1294.003656529679	16
65	20922	1296.507569393806	24
65	20955	1299.412526740598	28
65	20987	1302.014933229261	25
65	21013	1304.221649506743	21
65	21037	1306.223307343436	19
65	21060	1308.123652868304	18
65	21128	1316.6	46
65	21141	1317.8	11
65	21154	1318.709822410342	8
65	21173	1320.218708917034	14
65	21186	1321.324018109143	10
65	21202	1322.531840129753	11
65	21231	1327.1	11
65	21240	1327.9	7
65	21278	1331.103531353825	31
65	21295	1332.404595447128	12
65	21304	1333.112850291259	6
65	21313	1333.82145501276	6
65	21332	1335.32724320783	14
65	21360	1339.3	13
65	21400	1342.8	34
65	21419	1344.301825943735	14
65	21433	1345.507339404811	11
65	21442	1346.013973508301	4
65	21472	1348.617477286444	25
65	21486	1349.827023901287	11
65	21498	1350.634255863909	7
65	21563	1358.5	45
65	21585	1360.4	18
65	21601	1361.80092302568	13
65	21617	1363.001140655325	11
65	21640	1364.903257910031	18
65	21721	1368.6	6
65	21835	1372	33
65	21898	1373.902396551803	18
65	21942	1375.811988188789	18
65	21969	1376.914931460369	10
65	22008	1378.615307180412	16
65	22039	1380.117686608055	14
65	22045	1380.527136507451	3
65	22073	1385	10
65	22093	1386.7	16
65	22151	1391.902199496554	51
65	22160	1392.402365419999	4
65	22191	1395.104184421616	26
65	22212	1396.813178315675	16
65	22250	1400.019147693014	31
65	22281	1402.72745269882	26
65	22310	1405.232647741294	24
65	22360	1409.640498241213	43
65	22384	1411.644764857551	19
65	22406	1413.4483596793	17
65	22452	1417.452171266798	39
65	22488	1421.8	18
65	22518	1424.3	24
65	22546	1426.707222133986	23
65	22592	1430.713215637534	39
65	22617	1432.820845331771	20
65	22651	1435.821710287046	29
65	22671	1437.428046814619	15
65	22703	1440.033159061957	25
65	22747	1446.4	24
65	22763	1447.9	14
65	22781	1449.305024271968	13
65	22802	1451.012906954318	16
65	22824	1452.815183675069	17
65	22854	1455.423373749869	25
65	22876	1457.226149180122	17
65	22903	1459.529098448357	22
65	22926	1461.429611738838	18
65	22963	1465.9	19
65	22980	1467.3	13
65	22996	1468.50744254769	11
65	23011	1469.808890710712	12
65	23026	1470.91322436432	10
65	23055	1473.420853883909	24
65	23125	1477.6	16
65	23145	1478.4	7
65	23191	1480.400934839465	19
65	23211	1481.206187120452	7
65	23237	1482.207925149774	9
65	23269	1483.715629808231	14
65	23281	1484.518007813914	7
65	23302	1486.219593732604	16
65	23313	1487.126880935724	8
65	23326	1488.029524753631	8
65	23350	1490.030108410203	19
65	23383	1495.5	15
65	23402	1497.1	15
65	23426	1499.108017540965	19
65	23444	1500.509911508816	13
65	23497	1505.213219093219	46
65	23515	1506.615495071035	13
65	23543	1509.020850963679	23
65	23621	1517.6	56
65	23639	1519.1	14
65	23660	1520.808106893682	16
65	23685	1522.917086344702	20
65	23691	1523.31975659098	3
65	23713	1525.127116636824	17
65	23764	1529.636829899432	44
65	23789	1532.7	7
65	23817	1535.2	24
65	23845	1537.602222854827	23
65	23870	1539.707464288979	20
65	23892	1541.515029749251	17
65	23942	1545.917120484758	43
65	23958	1547.122681307556	11
65	23982	1549.124398715082	19
65	24036	1553.925214160455	47
65	24133	1558.7	27
65	24158	1559.9	11
65	24192	1561.300689760835	13
65	24216	1562.21052489411	8
65	24236	1563.019133097658	7
65	24270	1564.421303430055	13
65	24288	1565.226321323734	7
65	24362	1570.2	22
65	24395	1573.2	29
65	24417	1575.000819524014	17
65	24438	1576.706379454396	16
65	24456	1578.116110308882	13
65	24480	1580.120894575262	19
65	24504	1582.122220356898	19
65	24541	1585.426947230853	32
65	24592	1591.1	31
65	24621	1593.7	25
65	24640	1595.200924622893	14
65	24645	1595.509819147457	2
65	24668	1597.417114975238	18
65	24682	1598.4179287284	9
65	24706	1600.421851062257	19
65	24741	1603.527008115685	30
65	24755	1604.527489272037	9
65	24803	1610.8	28
65	24833	1613.5	26
65	24850	1614.807835664642	12
65	24868	1616.215685722404	13
65	24900	1619.016995940632	27
65	24931	1621.724308738647	26
65	24957	1623.931528172235	21
65	24994	1627.034307835048	30
65	25013	1628.537682413143	14
65	25029	1629.942277125044	13
65	25045	1631.148656752585	11
65	25156	1637.4	34
65	25181	1638.5	10
65	25247	1641.409820074248	28
65	25299	1643.718810294482	22
65	25327	1644.92735837083	11
65	25360	1646.236937117911	12
65	25404	1649.03866629805	27
65	25432	1653.3	13
65	25455	1655.3	19
65	25503	1659.507947332828	41
65	25519	1660.712143501096	11
65	25528	1661.417160770668	6
65	25540	1662.217473477102	7
65	25564	1664.221029551827	19
65	25583	1665.922243846432	16
65	25604	1667.623439588989	16
65	25659	1670.8	8
65	25672	1671.3	4
65	25716	1673.107191817334	17
65	25736	1673.913603539415	7
65	25774	1675.518799512301	15
65	25798	1677.52671359293	19
65	25820	1679.33660656861	17
65	25831	1680.038350382407	6
65	25852	1681.940641556008	18
65	25888	1685.8	18
65	25906	1687.3	14
65	25942	1690.309589224087	29
65	25954	1691.315748892591	9
65	25990	1694.318287677426	29
65	26004	1695.52718837617	11
65	26019	1696.633669804765	10
65	26039	1698.234934669595	15
65	26066	1700.543453922061	22
65	26099	1703.443520845865	28
65	26119	1705.048259152338	15
65	26167	1710.9	29
65	26178	1711.9	9
65	26209	1714.408488023576	24
65	26240	1717.114798257203	26
65	26271	1719.822520684368	26
65	26288	1721.130427320998	12
65	26301	1722.039515170725	8
65	26331	1724.641247068641	25
65	26360	1727.143361232683	24
65	26395	1730.046268636967	28
65	26413	1731.650022122879	15
65	26450	1735.9	19
65	26513	1741.5	55
65	26517	1741.701728827403	1
65	26536	1743.204507435957	14
65	26540	1743.411257105025	1
65	26580	1746.81885846537	33
65	26585	1747.125943424822	2
65	26595	1747.932591290624	7
65	26624	1750.242427632919	22
65	26637	1751.345830448394	10
65	26654	1752.653893694624	12
65	26701	1758.7	27
65	26723	1760.6	18
65	26750	1762.906954204034	22
65	26768	1764.316282883651	13
65	26784	1765.721494892883	13
65	26819	1768.623625127634	28
65	26844	1770.726776075924	20
65	26854	1771.527455218364	7
65	26871	1772.833759731116	12
65	26891	1774.438439045535	15
65	26898	1774.939316081232	4
65	26915	1776.248232473772	12
65	26933	1777.853692481281	15
65	26953	1779.45840848661	15
65	27041	1784.1	21
65	27084	1786.1	19
65	27107	1787.501187449484	13
65	27128	1789.206212968774	16
65	27142	1790.215805004056	9
65	27151	1790.922810840251	6
65	27163	1791.923544266324	9
65	27174	1792.630577884227	6
65	27184	1793.43829336641	7
65	27202	1794.84216153621	13
65	27220	1796.250748465683	13
65	27246	1798.453386392179	21
65	27285	1801.862368561396	33
65	27337	1804.7	7
65	27382	1806.8	20
65	27404	1807.702504623641	8
65	27460	1810.012071614276	22
65	27503	1813.214740015157	31
65	27516	1814.12083917602	8
65	27536	1815.926587763149	17
65	27555	1817.432155059436	14
65	27576	1819.139892834873	16
65	27613	1822.242900450216	30
65	27647	1825.245395746671	29
65	27668	1826.951478200307	16
65	27688	1828.559885283481	15
65	27720	1831.36212289331	27
65	27738	1832.762426874833	13
65	27938	1838.9	29
65	27984	1840.8	18
65	28021	1842.90147724189	20
65	28049	1845.301834522447	23
65	28072	1847.202392146788	18
65	28089	1848.505621882293	12
65	28114	1850.615127757252	20
65	28149	1853.724906172447	30
65	28161	1854.528866111428	7
65	28199	1857.931980790045	33
65	28223	1859.937705975622	19
65	28251	1862.142011265941	21
65	28279	1864.543825087698	23
65	28311	1867.353028594164	27
65	28343	1871.4	14
65	28366	1873.4	19
65	28388	1875.200567922643	17
65	28409	1876.905108979362	16
65	28438	1879.413977154191	24
65	28476	1882.623277451156	31
65	28501	1884.731991482709	20
65	28512	1885.632960041711	8
65	28527	1886.741258472628	10
65	28593	1891.6	16
65	28605	1892.5	8
65	28627	1894.302816723878	17
65	28638	1895.208060287774	8
65	28688	1899.615219636893	43
65	28730	1903.220066554719	35
65	28750	1904.828596861258	15
65	28772	1906.638312182464	17
65	28814	1910.239440616967	35
65	28842	1915	10
65	28869	1917.4	23
65	28873	1917.600168030683	1
65	28904	1920.10974259298	24
65	28914	1920.912197821868	7
65	28941	1923.219334564729	22
65	28980	1926.528791170039	32
65	29007	1928.830675936423	22
65	29034	1931.133382740235	22
65	29063	1933.635664848394	24
65	29085	1935.439949046678	17
65	29105	1937.046512210459	15
65	29142	1940.147372349283	30
65	29176	1945.6	16
65	29208	1948.3	26
65	29236	1950.70833142715	23
65	29255	1952.211727132245	14
65	29286	1954.917237001321	26
65	29326	1958.322693084712	33
65	29376	1962.723463364186	43
65	29394	1964.126062032974	13
65	29417	1968.5	5
65	29441	1970.6	20
65	29448	1971.102645558498	4
65	29485	1974.205810148329	30
65	29495	1975.008381400317	7
65	29517	1976.810263705585	17
65	29526	1977.517265025107	6
65	29564	1980.720949657452	31
65	29594	1985.2	12
65	29605	1986	7
65	29639	1989.00316995535	29
65	29645	1989.403524492196	3
65	29664	1990.910484534838	14
65	29679	1992.020015565152	10
65	29718	1995.523436894961	34
65	29738	1997.132305561028	15
65	29767	1999.636295101624	24
65	29872	2003.8	18
65	29969	2008	41
65	29987	2009.604535103719	15
65	30011	2011.613019420133	19
65	30050	2014.921690166684	32
65	30069	2016.431441029543	14
65	30111	2020.032972807553	35
65	30148	2025.9	19
65	30169	2027.7	17
65	30188	2029.202608514269	14
65	30206	2030.610835471268	13
65	30250	2034.413906099084	37
65	30259	2035.118971289096	6
65	30277	2036.520869428122	13
65	30321	2042.7	27
65	30330	2043.5	7
65	30365	2046.404737891354	28
65	30388	2048.313776033184	18
65	30410	2050.114352689246	17
65	30428	2051.718950801932	15
65	30515	2060.3	63
65	30529	2061.6	12
65	30567	2064.807552329199	31
65	30594	2067.116758937711	22
65	30610	2068.325521953384	11
65	30624	2069.53489208615	11
65	30651	2071.836017794963	22
65	30711	2078.1	41
65	30739	2080.6	24
65	30752	2081.704537595426	10
65	30782	2084.11256905435	23
65	30801	2085.814644628966	16
65	30822	2087.518170950727	16
65	30839	2088.819701493321	12
65	30856	2092.2	2
65	30870	2093.5	12
65	30889	2095.002494531616	14
65	30920	2097.710695838895	26
65	30973	2102.214994728955	44
65	30978	2102.518953095088	2
65	31015	2105.822873521168	32
65	31027	2106.631248651913	7
65	31049	2108.44034238259	17
65	31082	2111.349155953504	28
65	31087	2111.655909052466	2
65	31121	2114.465009650723	27
65	31225	2121.2	32
65	31248	2123.2	19
65	31274	2125.403736613993	21
65	31287	2126.313557504778	8
65	31298	2127.223421675177	8
65	31311	2128.129944464618	8
65	31336	2130.235789992625	20
65	31344	2130.837577742524	5
65	31389	2134.745424858529	38
65	31420	2139.3	13
65	31437	2140.7	13
65	31451	2141.904061928915	11
65	31464	2142.811912723192	8
65	31492	2145.21954773893	23
65	31500	2145.82376590588	5
65	31543	2150.3	23
65	31570	2152.7	23
65	31596	2154.904695600015	21
65	31633	2158.008231340972	30
65	31658	2160.114380099944	20
65	31675	2161.616471239268	14
65	31686	2162.326334592709	6
65	31707	2164.032303308501	16
65	31712	2164.341992989623	2
65	31722	2165.143245756743	7
65	31728	2165.553121859874	3
65	31780	2171.2	32
65	31804	2173.3	20
65	31827	2175.20730715974	18
65	31855	2177.614190187843	23
65	31872	2178.915803775968	12
65	31910	2182.119735865352	31
65	31937	2184.425938916079	22
65	31959	2188.7	7
65	31990	2191.5	27
65	32024	2194.302309835108	27
65	32056	2197.103838052453	27
65	32088	2199.911532822792	27
65	32098	2200.521181916611	5
65	32110	2201.524119546872	9
65	32124	2202.527208734385	9
65	32156	2205.333502073068	27
65	32167	2206.033987586047	6
65	32175	2206.635012718518	5
65	32225	2211.044031301317	43
65	32279	2215.7	17
65	32292	2216.7	9
65	32320	2219.107474386156	23
65	32336	2220.315508233839	11
65	32363	2222.623847611164	22
65	32393	2225.228161726325	25
65	32439	2229.228210536002	39
65	32466	2231.530368837728	22
65	32478	2232.333443500145	7
65	32503	2234.436783958432	20
65	32516	2235.543255505951	10
65	32600	2240.8	28
65	32616	2242.1	12
65	32643	2244.40718727081	22
65	32671	2246.816877389123	23
65	32715	2250.623458324676	37
65	32730	2251.926950371955	12
65	32751	2253.627402447543	16
65	32771	2255.235173374602	15
65	32818	2258.4	4
65	32859	2260.3	18
65	32909	2262.501213978745	21
65	32955	2264.505833278491	19
65	33019	2267.312141785783	27
65	33052	2268.712606147104	13
65	33074	2269.919760233359	11
65	33094	2271.520872594313	15
65	33129	2274.42860896062	28
65	33163	2277.434416853912	29
65	33192	2281.1	11
65	33232	2284.6	34
65	33253	2286.308844561232	16
65	33289	2289.511735964412	31
65	33307	2290.920115884306	13
65	33341	2293.929280374039	29
65	33360	2295.437884871766	14
65	33381	2297.146170735205	16
65	33403	2298.95250681525	17
65	33426	2302.7	7
65	33453	2305.1	23
65	33461	2305.700655159312	5
65	33492	2308.204114526612	24
65	33509	2309.706730665002	14
65	33517	2310.10948957746	3
65	33540	2312.011953968779	18
65	33590	2316.414773306521	43
65	33634	2322.4	24
65	33664	2325.1	26
65	33682	2326.505797689724	13
65	33720	2329.910123592197	33
65	33738	2331.315518143676	13
65	33752	2332.32251173103	9
65	33787	2335.425936334773	30
65	33872	2340.1	21
65	33971	2344.4	42
65	33983	2345.404962984926	9
65	34007	2347.405368993887	19
65	34017	2348.01182843123	5
65	34029	2349.014400113715	9
65	34058	2351.517027804005	24
65	34078	2353.125720117563	15
65	34104	2355.332960193916	21
65	34171	2362.5	45
65	34183	2363.6	10
65	34191	2364.006777238342	3
65	34208	2365.51506911774	14
65	34223	2366.62234384324	10
65	34236	2367.726353908281	10
65	34265	2370.029415682891	22
65	34276	2370.929558723873	8
65	34305	2373.429606629306	24
65	34333	2375.832300492169	23
65	34361	2378.042228945924	21
65	34400	2383.3	13
65	34433	2386.1	27
65	34446	2387.205737207615	10
65	34518	2393.613356718969	63
65	34544	2395.816025841621	21
65	34585	2399.323904486359	34
65	34610	2401.429005072333	20
65	34634	2403.429195234123	19
65	34666	2407.4	14
65	34699	2410.2	27
65	34727	2412.600337275436	23
65	34740	2413.708977262765	10
65	34775	2416.61306774512	28
65	34785	2417.416475693567	7
65	34790	2417.723816763835	2
65	34798	2418.131707463827	3
65	34808	2418.938224502014	7
65	34836	2421.339249649412	23
65	34861	2424.7	7
65	34891	2427.4	26
65	34908	2428.706237438425	12
65	34930	2430.50684959757	17
65	34979	2436.9	29
65	35004	2439.1	21
65	35022	2440.506389280417	13
65	35031	2441.214549780279	6
65	35051	2442.819064310323	15
65	35075	2444.819665230812	19
65	35096	2446.522961631434	16
65	35119	2448.424748595259	18
65	35145	2450.634351637142	21
65	35198	2454.7	7
65	35287	2458.7	39
65	35335	2460.806610427885	20
65	35351	2461.811479255	9
65	35370	2463.318629486883	14
65	35406	2466.327175228454	29
65	35422	2467.727661327084	13
65	35434	2468.534701274337	7
65	35455	2472.3	3
65	35459	2472.6	2
65	35483	2474.605519463552	19
65	35509	2476.811700661745	21
65	35521	2477.819626205111	9
65	35554	2480.52870001814	26
65	35564	2481.33205821856	7
65	35611	2486.7	27
65	35635	2488.8	20
65	35653	2490.201600322769	13
65	35679	2492.406297159892	21
65	35696	2493.914163838276	14
65	35726	2496.322316531732	23
65	35753	2498.625088033166	22
65	35793	2504.3	23
65	35829	2507.6	32
65	35860	2510.100330882796	24