version 2
run Join-49-20130429-12:50:47-17679
attr configname Join
attr datetime 20130429-12:50:47
attr experiment "\"Join\""
attr inifile omnetpp.ini
attr iterationvars $0=512
attr iterationvars2 "$0=512, $repetition=9"
attr measurement $0=512
attr network Network
attr processid 17679
attr repetition 9
attr replication #9
attr resultdir results
attr runnumber 49
attr seedset 49

vector 49  Network.dyn_peer[0]  lookupHopsSig:vector  ETV
49	1689	20.4	4
49	1699	21.3	8
49	1712	22.200031970401	8
49	1722	23.00250349196	7
49	1740	24.404888252446	13
49	1749	25.114786854146	6
49	1756	25.618898816399	4
49	1788	28.219581456162	25
49	1799	29.119758708249	8
49	1815	30.320559330729	11
49	1848	35.5	15
49	1875	37.9	23
49	1891	39.108446496347	11
49	1897	39.516161403364	3
49	1913	40.724600063477	11
49	1920	41.229568289698	4
49	1925	41.536988688819	2
49	1931	41.939286963469	3
49	1963	45.6	16
49	1976	46.6	9
49	1990	47.803759847003	11
49	2006	49.004852776086	11
49	2015	49.709210338763	6
49	2034	51.217742740451	14
49	2057	53.118952797965	18
49	2070	54.023226168485	8
49	2091	55.924517563829	18
49	2109	57.332534678309	13
49	2139	61.2	12
49	2147	61.9	6
49	2157	62.500179776204	5
49	2172	63.801912222387	12
49	2184	64.606468120923	7
49	2190	65.009209812279	3
49	2232	70.2	22
49	2256	72.3	20
49	2281	74.406199195405	20
49	2286	74.715038538113	2
49	2293	75.216966449822	4
49	2319	77.4258973264	21
49	2330	78.126681839225	6
49	2353	82.5	5
49	2356	82.7	1
49	2396	86.103069443032	33
49	2401	86.308148103047	1
49	2407	86.714482290558	3
49	2414	87.217313182248	4
49	2418	87.423992883482	1
49	2433	88.524231993807	10
49	2449	89.930100698864	13
49	2479	93.2	12
49	2495	94.5	12
49	2501	94.901738550721	3
49	2509	95.507616559143	5
49	2519	96.111097515648	5
49	2530	97.019275735375	8
49	2547	98.321975078718	12
49	2556	99.029884982959	6
49	2570	100.037796553908	9
49	2586	101.447123508699	13
49	2601	102.553872549802	10
49	2642	108.1	21
49	2661	109.9	17
49	2675	110.90252859052	9
49	2693	112.305127822663	13
49	2702	113.01225323652	6
49	2712	113.821487946955	7
49	2734	115.627304834017	17
49	2755	118.6	6
49	2760	119	3
49	2778	120.401977498219	13
49	2804	122.605381561645	21
49	2823	124.115216736757	14
49	2830	124.624667795694	4
49	2858	129	10
49	2872	130.1	10
49	2886	131.303547257813	11
49	2903	132.613470552076	12
49	2913	133.420444063384	7
49	2930	134.725090929503	12
49	2938	135.326412301068	5
49	2945	135.828967727387	4
49	2957	136.629812118757	7
49	2975	138.03585595586	13
49	2992	139.540592722221	14
49	3005	140.445582851929	8
49	3033	145	10
49	3041	145.7	6
49	3055	146.705322962752	9
49	3080	148.812934831093	20
49	3098	150.215669491422	13
49	3116	151.818026061107	15
49	3137	153.521963585	16
49	3168	157.3	13
49	3178	158	6
49	3198	159.808343878742	17
49	3209	160.510019842509	6
49	3222	161.613285401814	10
49	3233	162.320900296982	6
49	3241	162.92839686265	5
49	3252	163.837414944158	8
49	3266	164.841282778186	9
49	3295	169.1	11
49	3304	169.9	7
49	3311	170.202231748506	2
49	3326	171.508848082426	12
49	3337	172.214880551123	6
49	3346	172.919748608204	6
49	3386	178	20
49	3401	179.4	13
49	3419	180.80106010294	13
49	3440	182.502019101019	16
49	3449	183.202985614671	6
49	3461	184.004152027184	7
49	3475	185.20876514007	11
49	3495	188.5	5
49	3499	188.8	2
49	3506	189.308380130468	4
49	3511	189.60884564018	2
49	3519	190.010515357299	3
49	3524	190.316257478349	2
49	3529	190.618332470919	2
49	3538	191.321481214953	6
49	3569	195.5	15
49	3582	196.5	9
49	3597	197.807752417027	12
49	3613	199.012422055328	11
49	3632	200.5223342543	14
49	3647	201.826186312734	12
49	3663	203.028818360333	11
49	3685	204.836017667999	17
49	3698	205.939023409957	10
49	3706	206.343468614915	3
49	3720	207.54907648342	11
49	3734	208.549696357734	9
49	3740	208.954735122527	3
49	3756	210.160228607793	11
49	3783	215	10
49	3797	216.1	10
49	3810	217.205065851563	10
49	3829	218.710381336395	14
49	3860	221.420190837971	26
49	3877	222.724972705907	12
49	3884	223.230654611308	4
49	3893	223.940263704282	6
49	3936	228.3	23
49	3956	230	16
49	3973	231.506856889608	14
49	3988	232.616720397146	10
49	4002	233.823409059058	11
49	4026	235.829207802853	19
49	4046	237.433076637848	15
49	4066	239.040115096457	15
49	4086	240.646756873188	15
49	4104	242.048358867246	13
49	4126	246.4	4
49	4150	248.5	20
49	4171	250.206625456728	16
49	4197	252.409375039273	21
49	4221	254.417094839612	19
49	4237	255.817554024735	13
49	4246	256.319920791345	4
49	4287	262.4	24
49	4298	263.4	9
49	4313	264.508819486477	10
49	4321	265.108839055156	5
49	4339	266.516559197256	13
49	4358	268.018930205987	14
49	4373	269.323464691159	12
49	4384	270.026790821614	6
49	4407	274.5	5
49	4428	276.3	17
49	4440	277.30469528215	9
49	4459	278.811874291058	14
49	4467	279.41588493476	5
49	4489	281.219409424754	17
49	4561	285.4	14
49	4571	286.1	6
49	4577	286.503343986833	3
49	4587	287.306126831289	7
49	4616	289.809480462231	24
49	4626	290.4137362936	5
49	4634	291.016334440279	5
49	4675	296.1	21
49	4686	297.1	9
49	4701	298.207120933302	10
49	4710	298.907724528368	6
49	4719	299.614211802516	6
49	4730	300.323382873908	6
49	4742	301.328118217019	9
49	4759	302.632164114596	12
49	4792	307.5	15
49	4810	309	14
49	4830	310.607998816296	15
49	4850	312.212409906202	15
49	4861	313.118733522378	8
49	4877	314.327907564568	11
49	4889	315.328083845703	9
49	4923	319.9	19
49	4940	321.3	13
49	4952	322.107409763988	7
49	4963	323.013548970515	8
49	4987	325.014957003443	19
49	5028	330.1	21
49	5038	331	8
49	5052	332.002067693965	9
49	5070	333.611733577709	15
49	5081	334.318714181563	6
49	5090	335.023413087351	6
49	5101	335.932250877134	8
49	5138	340	20
49	5150	341.1	10
49	5159	341.802695043757	6
49	5182	343.706987593348	18
49	5193	344.409960387448	6
49	5205	345.413509495289	9
49	5219	346.418790814639	9
49	5228	347.126273269194	6
49	5241	348.03251507816	8
49	5250	348.733919602575	6
49	5263	349.838382670693	10
49	5276	350.745958387777	8
49	5286	351.548468522864	7
49	5313	354.9	9
49	5323	355.8	8
49	5351	358.005211988	21
49	5363	359.007066690059	9
49	5377	360.007594303596	9
49	5388	360.909659094535	8
49	5394	361.312696121765	3
49	5402	361.921082842128	5
49	5420	363.323088901677	13
49	5441	365.023412699858	16
49	5457	366.227273039864	11
49	5469	367.22857282285	9
49	5478	367.932549473958	6
49	5497	369.438120197356	14
49	5525	373	10
49	5538	374	9
49	5548	374.805414252167	7
49	5556	375.409232346296	5
49	5572	376.610364487556	11
49	5586	377.815681514437	11
49	5594	378.217935134137	3
49	5604	379.020966565119	7
49	5611	379.528655410717	4
49	5621	380.133760695241	5
49	5629	380.743599142222	5
49	5676	386.7	27
49	5692	388	12
49	5704	389.008141250114	9
49	5718	390.010598764877	9
49	5731	391.119393910943	10
49	5746	392.22251338195	10
49	5779	397.5	15
49	5787	398	4
49	5807	399.80252253662	17
49	5820	400.709995227331	8
49	5843	402.614953233663	18
49	5858	403.916750017165	12
49	5878	405.526296045256	15
49	5889	406.235191798691	6
49	5908	407.943743426493	16
49	5919	408.652460430923	6
49	5941	412.4	4
49	5954	413.6	11
49	5966	414.401932500293	7
49	5981	415.704470058334	12
49	5997	416.910217602927	11
49	6009	417.916490487196	9
49	6023	418.924149616787	9
49	6050	423.2	12
49	6069	424.8	15
49	6086	426.106176596179	12
49	6103	427.610608471035	14
49	6116	428.511206777902	8
49	6129	429.61422449647	10
49	6141	430.424035095684	7
49	6155	431.628852998686	11
49	6169	432.637415320239	9
49	6184	433.940360999821	12
49	6191	434.240999802824	2
49	6224	439.5	15
49	6242	441	14
49	6257	442.100515425584	10
49	6273	443.504733807183	13
49	6277	443.711228114402	1
49	6294	445.017045017069	12
49	6311	446.321831688399	12
49	6322	447.224517265516	8
49	6331	447.929066406164	6
49	6341	448.53470901674	5
49	6360	450.039210779714	14
49	6425	455.3	13
49	6454	456.4	10
49	6477	457.409493436154	9
49	6505	458.515762658633	10
49	6537	459.923791926139	13
49	6559	460.725560672594	7
49	6565	461.126079381407	3
49	6597	465.7	17
49	6611	466.8	10
49	6624	467.901436961656	10
49	6639	469.010277434202	10
49	6659	470.61843585792	15
49	6664	470.925533117793	2
49	6673	471.630966466079	6
49	6685	472.439419883932	7
49	6691	472.844061037574	3
49	6707	474.047001199717	11
49	6772	480.5	25
49	6793	482.3	17
49	6805	483.308016172102	9
49	6817	484.113690630662	7
49	6829	485.114811324781	9
49	6838	485.821968207367	6
49	6844	486.030942897822	1
49	6849	486.338379584362	2
49	6856	486.845440857666	4
49	6869	487.951426265385	10
49	6886	489.252874864957	12
49	6907	492.3	3
49	6920	493.5	11
49	6938	494.903575136663	13
49	6953	496.009244258945	10
49	6969	497.418612134816	13
49	6994	499.526831449191	20
49	7010	500.732208498271	11
49	7045	505.7	17
49	7056	506.5	7
49	7102	510.506615808266	39
49	7117	511.808524260592	12
49	7130	512.713229900145	8
49	7140	513.519411589815	7
49	7151	514.222545708343	6
49	7173	518.4	4
49	7195	520.3	18
49	7219	522.304305228099	19
49	7227	522.91139129751	5
49	7231	523.120428551743	1
49	7240	523.827604868023	6
49	7254	524.83286105538	9
49	7295	530.1	21
49	7303	530.8	6
49	7325	532.603129457528	17
49	7345	534.209058505703	15
49	7358	535.311172328506	10
49	7375	536.61169448094	12
49	7380	536.915920873803	2
49	7399	538.416799598729	14
49	7420	540.125069906873	16
49	7443	544.5	5
49	7446	544.7	1
49	7468	546.50521868464	17
49	7481	547.61252239812	10
49	7490	548.114341257054	4
49	7503	549.214464820593	10
49	7512	549.924411168082	6
49	7541	553.1	11
49	7547	553.6	4
49	7559	554.408963828841	7
49	7564	554.712979480786	2
49	7587	556.619491393469	18
49	7610	558.522834467169	18
49	7625	559.828619609838	12
49	7642	561.129846456825	12
49	7669	564.9	9
49	7676	565.5	5
49	7688	566.300695829889	7
49	7697	567.002412073415	6
49	7713	568.207587968959	11
49	7719	568.616888985957	3
49	7728	569.321481109058	6
49	7739	570.022531199801	6
49	7747	570.627477237893	5
49	7755	571.232228569992	5
49	7767	572.038770097727	7
49	7775	572.64338290686	5
49	7797	576.5	5
49	7808	577.5	9
49	7821	578.401655066164	8
49	7842	580.103735047263	16
49	7850	580.705755450433	5
49	7861	581.60756529555	8
49	7883	583.416831176011	17
49	7896	584.320278985074	8
49	7902	584.720655559177	3
49	7928	588.8	8
49	7940	589.9	10
49	7950	590.506699970453	5
49	7955	590.811075773662	2
49	7964	591.512281966886	6
49	7979	592.62160643621	10
49	7992	593.729620388342	10
49	8005	594.63958997167	8
49	8016	595.549454448568	8
49	8034	596.953909826788	13
49	8049	598.05678224055	10
49	8060	598.961138269367	8
49	8089	603.2	12
49	8106	604.6	13
49	8115	605.30789743578	6
49	8136	607.010884578087	16
49	8152	608.219641239597	11
49	8168	609.622960405422	13
49	8185	610.928834598702	12
49	8203	612.334309713206	13
49	8218	613.643564203352	12
49	8238	615.243723187787	15
49	8257	616.74402934686	14
49	8262	617.048040027715	2
49	8287	620.7	7
49	8293	621.2	4
49	8299	621.60590692932	3
49	8313	622.510323499848	8
49	8328	623.811086502526	12
49	8339	624.51544106732	6
49	8347	625.116821485311	5
49	8385	630.1	21
49	8393	630.8	6
49	8404	631.709502533203	8
49	8418	632.713317804035	9
49	8427	633.422600517956	6
49	8450	635.324104616556	18
49	8461	636.028357352381	6
49	8469	636.629545314802	5
49	8494	638.734022155288	20
49	8502	639.339715366419	5
49	8513	640.039846198672	6
49	8529	641.446090307807	13
49	8535	641.85018252797	3
49	8553	643.253586270735	13
49	8569	644.457228000744	11
49	8630	649.3	13
49	8633	649.5	1
49	8637	649.707000586651	1
49	8645	650.111473830688	3
49	8660	651.417384268849	12
49	8664	651.618101138514	1
49	8683	653.12567924803	14
49	8717	657.6	16
49	8736	659.2	15
49	8748	660.003953767954	7
49	8759	660.910406227097	8
49	8775	662.113262944076	11
49	8785	662.920275321247	7
49	8802	664.222044877114	12
49	8821	665.92470486408	16
49	8833	666.725686246311	7
49	8842	667.431127258057	6
49	8862	669.03721159852	15
49	8884	670.845171788079	17
49	8891	671.346431423512	4
49	8924	675.5	15
49	8933	676.1	5
49	8948	677.402070591819	12
49	8954	677.803107363105	3
49	8965	678.505094906481	6
49	8972	679.013381742318	4
49	8991	680.518131274578	14
49	9001	681.325236964204	7
49	9012	682.030877999185	6
49	9041	687.2	12
49	9048	687.8	5
49	9061	688.701676265848	8
49	9081	690.311387642048	15
49	9091	691.120166630375	7
49	9109	692.523734561025	13
49	9122	693.627112386982	10
49	9134	694.434950027464	7
49	9144	695.238605390808	7
49	9152	695.841466079053	5
49	9171	697.343738877576	14
49	9200	701.3	13
49	9213	702.3	9
49	9219	702.709370391564	3
49	9228	703.410356711796	6
49	9242	704.418852766744	9
49	9256	705.628815570518	11
49	9283	707.938182927402	22
49	9297	708.946876254507	9
49	9318	710.6474691215	16
49	9327	711.348006502392	6
49	9342	712.451713805359	10
49	9351	713.15653158914	6
49	9383	717.4	14
49	9394	718.2	7
49	9408	719.400543805295	11
49	9420	720.205585281105	7
49	9426	720.613174952404	3
49	9455	725.1	11
49	9470	726.3	11
49	9485	727.609339460406	12
49	9499	728.616880417164	9
49	9507	729.218497536373	5
49	9520	730.125362990987	8
49	9531	731.03281232098	8
49	9561	735.5	15
49	9576	736.7	11
49	9594	738.101916623059	13
49	9604	738.910701464132	7
49	9614	739.713331380669	7
49	9639	741.815780565769	20
49	9655	743.017808131401	11
49	9672	744.326168642153	12
49	9690	745.931422607423	15
49	9699	746.440838799529	4
49	9730	751.3	13
49	9742	752.2	8
49	9764	754.001990407533	17
49	9772	754.611371029156	5
49	9779	755.119152187569	4
49	9809	757.728098775126	25
49	9830	759.432929797259	16
49	9862	763.4	14
49	9866	763.7	2
49	9883	765.002734428276	12
49	9893	765.80542545976	7
49	9908	766.910480712364	10
49	9917	767.611904577455	6
49	9941	770.6	6
49	9951	771.5	8
49	9963	772.309597811966	7
49	9975	773.318381856153	9
49	9990	774.419498537237	10
49	9998	775.026873981787	5
49	10013	776.127809052185	10
49	10029	777.533565307459	13
49	10043	778.53498854258	9
49	10057	779.74082188038	11
49	10070	780.645080996482	8
49	10085	781.954505695579	12
49	10160	785.9	19
49	10169	786.5	5
49	10179	787.309526603247	7
49	10186	787.810842542198	4
49	10196	788.420022402556	5
49	10212	789.825498443708	13
49	10222	790.435071782813	5
49	10254	795.7	17
49	10265	796.5	7
49	10270	796.800314024635	2
49	10281	797.70715345363	8
49	10296	798.80740633983	10
49	10307	799.712050978497	8
49	10319	800.518524513146	7
49	10342	802.420495815527	18
49	10356	803.62607541275	11
49	10371	804.727533667453	10
49	10397	806.927922908284	21
49	10441	812.4	24
49	10454	813.6	11
49	10463	814.103340209473	4
49	10483	815.903939886618	17
49	10498	817.008998455406	10
49	10507	817.717080016579	6
49	10522	818.817829947185	10
49	10529	819.324581963303	4
49	10541	820.124871900735	7
49	10574	825.5	15
49	10586	826.4	8
49	10594	827.009673289323	5
49	10613	828.514066936787	14
49	10625	829.522900792377	9
49	10630	829.826356983397	2
49	10651	831.533991236009	16
49	10672	833.243454022577	16
49	10688	834.444587127919	11
49	10713	838.7	7
49	10726	839.9	11
49	10744	841.300252380613	13
49	10750	841.701305914707	3
49	10764	842.710110649573	9
49	10776	843.719944178084	9
49	10787	844.428519231673	6
49	10808	848.3	3
49	10813	848.7	3
49	10821	849.301854637814	5
49	10837	850.511166728792	11
49	10852	851.819819053792	12
49	10873	853.527241325076	16
49	10900	855.829376071922	22
49	10921	858.3	3
49	10929	859	6
49	10950	860.701563675806	16
49	10957	861.208551359667	4
49	10970	862.110359855598	8
49	10984	863.319358004383	11
49	11010	866.8	8
49	11025	868	11
49	11035	868.806589348816	7
49	11046	869.714297711562	8
49	11066	871.319109927054	15
49	11087	873.020262041798	16
49	11097	873.821970697437	7
49	11110	874.722737344224	8
49	11122	875.732547167169	9
49	11147	878.8	8
49	11158	879.8	9
49	11180	881.600898642989	17
49	11196	882.803208424935	11
49	11203	883.307953707645	4
49	11228	886.7	7
49	11240	887.8	10
49	11265	889.904779901239	20
49	11275	890.508692916119	5
49	11288	891.612132547723	10
49	11303	892.718822222276	10
49	11329	894.924974019081	21
49	11354	897.033536127694	20
49	11378	899.033611518556	19
49	11389	899.935584081771	8
49	11423	903.6	16
49	11438	904.8	11
49	11448	905.605106758351	7
49	11460	906.409775585731	7
49	11470	907.215394181717	7
49	11483	908.125119167601	8
49	11492	908.827111160938	6
49	11519	913.2	12
49	11534	914.4	11
49	11550	915.800392309303	13
49	11563	916.706655129561	8
49	11573	917.51318040205	7
49	11587	918.518669516132	9
49	11601	919.71989972351	11
49	11629	923	10
49	11638	923.8	7
49	11647	924.306299075058	4
49	11673	926.512518064407	21
49	11684	927.419527389157	8
49	11702	928.820820561674	13
49	11725	932.5	5
49	11751	934.8	22
49	11767	936.006838131917	11
49	11780	937.113967784305	10
49	11787	937.617735484237	4
49	11820	941.5	15
49	11834	942.6	10
49	11847	943.703402623569	10
49	11860	944.605504807284	8
49	11871	945.510781494929	8
49	11887	946.714553897732	11
49	11897	947.521074488348	7
49	11906	948.022354213487	4
49	11944	954	20
49	11969	956.2	21
49	11980	957.101454589068	8
49	11996	958.30733065395	11
49	12027	963.3	13
49	12047	965	16
49	12062	966.10589584182	10
49	12070	966.70686988953	5
49	12074	966.90888268721	1
49	12080	967.31644625761	3
49	12086	967.724454774373	3
49	12095	968.231285932784	4
49	12120	970.336795543304	20
49	12128	970.937078584048	5
49	12132	971.143430191617	1
49	12159	975	10
49	12165	975.5	4
49	12189	977.507107840972	19
49	12206	978.812205966096	12
49	12228	980.617621117182	17
49	12250	982.41847792297	17
49	12264	983.624352393093	11
49	12277	984.53268528014	8
49	12288	985.442479816254	8
49	12307	988.1	1
49	12316	988.9	7
49	12327	989.804025147296	8
49	12340	990.70891974413	8
49	12358	992.116989969156	13
49	12384	996.8	8
49	12403	998.4	15
49	12417	999.608327912942	11
49	12432	1000.717112524122	10
49	12445	1001.822066824269	10
49	12454	1002.32993908253	4
49	12469	1003.635749670047	12
49	12480	1004.335773676874	6
49	12504	1008.8	8
49	12513	1009.6	7
49	12527	1010.608545045007	9
49	12536	1011.309605453393	6
49	12552	1012.513954424547	11
49	12572	1014.115856373927	15
49	12598	1016.318106017927	21
49	12608	1017.123558604744	7
49	12622	1018.128907705153	9
49	12632	1018.930004724328	7
49	12648	1020.137546403837	11
49	12662	1021.344381317939	11
49	12670	1021.946917263225	5
49	12683	1022.848943859499	8
49	12694	1023.755639557577	8
49	12726	1027.5	15
49	12736	1028.2	6
49	12743	1028.704241990032	4
49	12756	1029.807336992075	10
49	12767	1030.507427933591	6
49	12774	1031.017197518441	4
49	12785	1031.920784450901	8
49	12793	1032.32796792727	3
49	12806	1033.429474413104	10
49	12817	1034.135369185847	6
49	12833	1035.536889470324	13
49	12850	1036.84190174384	12
49	12887	1041.9	19
49	12902	1043.1	11
49	12911	1043.800239490678	6
49	12930	1045.303592732762	14
49	12944	1046.30723012857	9
49	12958	1047.51528062915	11
49	12967	1048.017079538517	4
49	12981	1049.224116353688	11
49	13017	1053.8	18
49	13032	1055	11
49	13041	1055.701261278069	6
49	13052	1056.404000546147	6
49	13059	1056.904059906957	4
49	13067	1057.506012697032	5
49	13079	1058.309350054874	7
49	13095	1059.711561706662	13
49	13119	1062.6	6
49	13126	1063.2	5
49	13134	1063.805118410107	5
49	13143	1064.311897903817	4
49	13154	1065.215694066717	8
49	13170	1066.420907762791	11
49	13180	1067.227654319943	7
49	13202	1069.033354021412	17
49	13216	1070.041088545034	9
49	13229	1071.143991057155	10
49	13243	1072.147661816481	9
49	13256	1073.250461635706	10
49	13268	1074.05064857599	7
49	13272	1074.251574263553	1
49	13315	1080.3	23
49	13343	1082.8	24
49	13351	1083.409148396844	5
49	13368	1084.713210258797	12
49	13380	1085.719877270891	9
49	13397	1087.026996998058	12
49	13418	1088.730364092509	16
49	13435	1090.038606450808	12
49	13441	1090.441893305029	3
49	13481	1096.2	22
49	13503	1098.1	18
49	13518	1099.400154692248	12
49	13529	1100.102297972416	6
49	13571	1106.2	22
49	13579	1106.9	6
49	13589	1107.70620243885	7
49	13597	1108.110889990198	3
49	13613	1109.516569579898	13
49	13625	1110.317637255592	7
49	13635	1111.12121010122	7
49	13648	1112.02153811609	8
49	13666	1113.622268613796	15
49	13681	1114.727778952149	10
49	13716	1119.7	17
49	13731	1120.9	11
49	13743	1121.905868360197	9
49	13754	1122.612098564099	6
49	13764	1123.420919521305	7
49	13771	1123.922983947997	4
49	13792	1126.3	3
49	13809	1127.9	15
49	13828	1129.408254410678	14
49	13848	1131.015665163313	15
49	13871	1132.92549747974	18
49	13883	1133.93370979992	9
49	13905	1135.743358218514	17
49	13920	1136.852751965059	10
49	13941	1138.558617197372	16
49	13960	1140.064849625587	14
49	13987	1142.370850281802	22
49	14005	1143.975428669462	15
49	14019	1144.981028380969	9
49	14035	1146.188306203705	11
49	14055	1150.3	3
49	14064	1151.1	7
49	14078	1152.100360721687	9
49	14097	1153.809931384536	16
49	14115	1155.216105175515	13
49	14131	1156.417413339305	11
49	14146	1157.725432815411	12
49	14167	1159.429361490645	16
49	14192	1162.7	7
49	14209	1164.1	13
49	14218	1164.803690561261	6
49	14237	1166.304476459172	14
49	14250	1167.40672434188	10
49	14269	1168.915400192761	14
49	14277	1169.520089424415	5
49	14287	1170.121921054501	5
49	14302	1171.426655157649	12
49	14322	1174.2	2
49	14335	1175.4	11
49	14346	1176.101885474079	6
49	14355	1176.808209482162	6
49	14383	1181	10
49	14399	1182.3	12
49	14424	1184.401886059651	20
49	14436	1185.405859742022	9
49	14443	1185.907249591436	4
49	14454	1186.612527020891	6
49	14507	1190.7	7
49	14546	1192.4	16
49	14558	1192.809146398687	3
49	14563	1193.118586592789	2
49	14569	1193.520363785401	3
49	14581	1194.324069415903	7
49	14597	1195.724898221843	13
49	14619	1198.4	4
49	14628	1199.2	7
49	14652	1201.204484735056	19
49	14671	1202.704556627859	14
49	14684	1203.814389006408	10
49	14694	1204.422229872684	5
49	14705	1205.327034361192	8
49	14750	1210.5	25
49	14758	1211.2	6
49	14767	1211.900240273873	6
49	14779	1212.700285520713	7
49	14793	1213.910152590725	11
49	14808	1215.015001309323	10
49	14833	1217.11703224532	20
49	14843	1217.920271825859	7
49	14859	1219.126743985871	11
49	14876	1220.429435435747	12
49	14899	1224.7	7
49	14920	1226.5	17
49	14935	1227.807296084617	12
49	14955	1229.409492044883	15
49	14972	1230.709956900245	12
49	14982	1231.51903707792	7
49	14995	1232.428479511888	8
49	15002	1232.937347570265	4
49	15039	1237.9	19
49	15056	1239.3	13
49	15070	1240.3070366527	9
49	15086	1241.71056882882	13
49	15106	1243.317976443816	15
49	15117	1244.027494132902	6
49	15131	1245.231614800648	11
49	15138	1245.736879236603	4
49	15145	1246.044527756483	2
49	15176	1251.3	13
49	15186	1252	6
49	15212	1254.205291283482	21
49	15222	1255.010676047773	7
49	15236	1256.019679703269	9
49	15245	1256.728688712039	6
49	15267	1258.529295620581	17
49	15274	1259.037068078278	4
49	15289	1260.144531703072	10
49	15306	1261.650318404298	14
49	15323	1262.95937543678	12
49	15363	1268.1	21
49	15369	1268.6	4
49	15377	1269.200544414627	5
49	15398	1270.909851493644	16
49	15407	1271.610736577724	6
49	15421	1272.617631675567	9
49	15428	1273.126324383805	4
49	15446	1274.53265676263	13
49	15484	1277.937459144626	33
49	15512	1281	10
49	15522	1281.9	8
49	15539	1283.203495805808	12
49	15554	1284.305028301316	10
49	15568	1285.512769960066	11
49	15584	1286.7150609054	11
49	15596	1287.718804133432	9
49	15621	1291	10
49	15635	1292.1	10
49	15644	1292.809592807248	6
49	15667	1294.711591260129	18
49	15687	1296.318225320028	15
49	15710	1298.221022237264	18
49	15724	1299.426033234914	11
49	15741	1300.73186051407	12
49	15755	1301.936082700512	11
49	15770	1303.038518142309	10
49	15789	1304.54499036431	14
49	15796	1305.046648826912	4
49	15836	1310	20
49	15846	1310.9	8
49	15856	1311.705283335081	7
49	15870	1312.713798942965	9
49	15880	1313.523317665665	7
49	15893	1314.427238338461	8
49	15913	1318.2	2
49	15922	1319	7
49	15926	1319.205605690772	1
49	15934	1319.814964633336	5
49	15947	1320.715388846468	8
49	15958	1321.617802421805	8
49	15970	1322.419000145106	7
49	16008	1328.1	21
49	16015	1328.7	5
49	16024	1329.402595771052	6
49	16035	1330.111444024782	6
49	16048	1331.213077944878	10
49	16064	1332.421911497034	11
49	16078	1333.624356498326	11
49	16094	1334.831747413711	11
49	16123	1339.1	11
49	16149	1341.4	22
49	16164	1342.508573684066	10
49	16176	1343.516686172219	9
49	16187	1344.218404504646	6
49	16193	1344.625098531484	3
49	16199	1345.025911290082	3
49	16213	1346.027708181596	9
49	16237	1350.8	8
49	16241	1351.1	2
49	16251	1351.907277884734	7
49	16259	1352.313263764434	3
49	16265	1352.7198802883	3
49	16278	1353.824468599237	10
49	16305	1356.9	9
49	16311	1357.4	4
49	16321	1358.009635607863	5
49	16332	1358.910472007821	8
49	16339	1359.414303892248	4
49	16344	1359.720530525369	2
49	16357	1360.630132603295	8
49	16365	1361.239448067363	5
49	16373	1361.842987679979	5
49	16384	1362.551936242722	6
49	16391	1363.054238596106	4
49	16398	1363.555424573329	4
49	16432	1367.7	17
49	16449	1369.1	13
49	16467	1370.505641801119	13
49	16478	1371.41299201748	8
49	16502	1374.6	6
49	16514	1375.7	10
49	16527	1376.604253888651	8
49	16533	1377.010868370755	3
49	16549	1378.216164849927	11
49	16558	1378.92480994699	6
49	16574	1380.134258363898	11
49	16599	1384.7	7
49	16602	1384.9	1
49	16617	1386.006519102009	10
49	16631	1387.210365351249	11
49	16646	1388.31699673751	10
49	16657	1389.226527605933	8
49	16671	1390.234227146895	9
49	16683	1391.240438666192	9
49	16708	1394.9	9
49	16725	1396.3	13
49	16742	1397.805318176751	14
49	16759	1399.107111297724	12
49	16773	1400.109240189908	9
49	16782	1400.810077556817	6
49	16798	1402.015209617305	11
49	16805	1402.515368248058	4
49	16820	1403.819091997243	12
49	16837	1405.121056780795	12
49	16912	1409.5	15
49	16935	1410.4	8
49	16955	1411.308301357142	8
49	16986	1412.514085152786	11
49	16996	1413.314915573421	7
49	17009	1414.221781716804	8
49	17041	1417.02284282482	27
49	17069	1421.3	13
49	17080	1422.1	7
49	17094	1423.300344107963	11
49	17113	1424.810245843417	14
49	17129	1426.014105383173	11
49	17141	1427.023012250781	9
49	17158	1428.326961880606	12
49	17166	1428.932315240446	5
49	17175	1429.637513662764	6
49	17203	1433	10
49	17229	1435.3	22
49	17240	1436.007180756672	6
49	17258	1437.607766120435	15
49	17276	1439.013857202002	13
49	17303	1441.323801044733	22
49	17324	1443.033627956176	16
49	17334	1443.839344652548	7
49	17346	1444.639909981809	7
49	17354	1445.244402813914	5
49	17369	1446.352682262128	10
49	17398	1451.1	11
49	17414	1452.4	12
49	17426	1453.402977251741	9
49	17444	1454.809410954594	13
49	17455	1455.712469414094	8
49	17468	1456.61902302681	8
49	17486	1458.020063448678	13
49	17496	1458.828522167528	7
49	17502	1459.232634630285	3
49	17537	1463.7	17
49	17550	1464.7	9
49	17558	1465.30398128821	5
49	17573	1466.413620016735	10
49	17580	1466.921244007199	4
49	17586	1467.330039376787	3
49	17594	1467.932175897528	5
49	17612	1470.3	3
49	17618	1470.8	4
49	17625	1471.308568010968	4
49	17632	1471.809671278819	4
49	17643	1472.516069919485	6
49	17649	1472.924206610335	3
49	17659	1473.72798226466	7
49	17674	1476	0
49	17687	1477.2	11
49	17699	1478.007871905807	7
49	17707	1478.612780424106	5
49	17722	1479.922149339007	12
49	17737	1481.026826071411	10
49	17741	1481.226988454563	1
49	17754	1482.127990199683	8
49	17758	1482.335050082215	1
49	17773	1483.635773612492	12
49	17810	1487.9	19
49	17823	1488.9	9
49	17831	1489.505052565878	5
49	17842	1490.207679687905	6
49	17861	1491.913088819823	16
49	17884	1493.81638710341	18
49	17899	1494.923939233751	10
49	17924	1498.7	7
49	17937	1499.9	11
49	17956	1501.403637564179	14
49	17973	1502.704546357238	12
49	17979	1503.112012642718	3
49	17995	1504.317366535971	11
49	18013	1505.921164223351	15
49	18041	1509	10
49	18056	1510.2	11
49	18074	1511.806781635514	15
49	18087	1512.714623722095	8
49	18092	1513.019825702303	2
49	18107	1514.123339143426	10
49	18113	1514.524220010759	3
49	18119	1514.92637487725	3
49	18128	1515.626464086716	6
49	18157	1519.1	11
49	18162	1519.5	3
49	18173	1520.208311719598	6
49	18182	1520.916688324365	6
49	18197	1522.020807579467	10
49	18210	1523.1283160346	10
49	18227	1524.428832005741	12
49	18236	1525.134080444817	6
49	18243	1525.641945018598	4
49	18263	1527.245674937762	15
49	18271	1527.851385826106	5
49	18280	1528.359301910752	4
49	18310	1533.2	12
49	18324	1534.3	10
49	18335	1535.201284919085	8
49	18351	1536.410883578562	11
49	18357	1536.814467868725	3
49	18377	1538.420101453239	15
49	18391	1539.620574084891	11
49	18424	1543.8	18
49	18440	1545.1	12
49	18444	1545.304564654477	1
49	18457	1546.205798786121	8
49	18472	1547.513283425626	12
49	18491	1549.020471764286	14
49	18506	1550.126120395036	10
49	18511	1550.435985717735	2
49	18546	1555.7	17
49	18554	1556.2	4
49	18563	1556.908406011129	6
49	18578	1558.014003106357	10
49	18590	1559.016871343037	9
49	18608	1560.417659479282	13
49	18632	1562.423548714106	19
49	18640	1563.030560841683	5
49	18665	1566.7	7
49	18678	1567.9	11
49	18690	1568.700318765032	7
49	18696	1569.109506273981	3
49	18704	1569.717052364224	5
49	18723	1571.220309920688	14
49	18738	1572.325484080766	10
49	18763	1577	10
49	18782	1578.6	15
49	18789	1579.104230450559	4
49	18807	1580.507423623199	13
49	18817	1581.310883587572	7
49	18832	1582.411064392299	10
49	18899	1587.5	15
49	18914	1588.7	11
49	18924	1589.50266718283	7
49	18939	1590.611044115721	10
49	18953	1591.820805594687	11
49	18976	1593.72386326171	18
49	18991	1594.8285331882	10
49	19008	1596.133051464492	12
49	19023	1597.437669645831	12
49	19035	1598.242260950395	7
49	19048	1599.342820898418	10
49	19061	1600.243954130937	8
49	19090	1605.3	13
49	19105	1606.5	11
49	19112	1607.004987103007	4
49	19121	1607.709451310305	6
49	19135	1608.717820294644	9
49	19147	1609.7259528518	9
49	19164	1611.035794458773	12
49	19175	1611.936688733987	8
49	19204	1615.1	11
49	19208	1615.4	2
49	19215	1615.905424634686	4
49	19232	1617.213599523817	12
49	19247	1618.3218714781	10
49	19254	1618.825026441496	4
49	19266	1619.832761136491	9
49	19279	1620.740491657231	8
49	19289	1621.5479040543	7
49	19306	1622.85006808929	12
49	19332	1627	10
49	19339	1627.6	5
49	19357	1629.006897156501	13
49	19362	1629.311482418109	2
49	19370	1629.913743773134	5
49	19377	1630.217787306579	2
49	19389	1631.224551825926	9
49	19401	1632.028601541893	7
49	19426	1636.9	9
49	19453	1639.3	23
49	19472	1640.802902133923	14
49	19494	1642.61055047278	17
49	19518	1644.620029438936	19
49	19527	1645.32902884971	6
49	19538	1646.037684590913	6
49	19548	1646.843983487886	7
49	19556	1647.452315152418	5
49	19573	1648.756530014141	12
49	19582	1649.464227994062	6
49	19594	1650.265677410809	7
49	19607	1651.365899433614	10
49	19615	1651.967710922189	5
49	19641	1654.8	8
49	19649	1655.5	6
49	19669	1657.103745877167	15
49	19679	1657.911825131	7