version 2
run Join-88-20130429-12:58:10-17679
attr configname Join
attr datetime 20130429-12:58:10
attr experiment "\"Join\""
attr inifile omnetpp.ini
attr iterationvars $0=8192
attr iterationvars2 "$0=8192, $repetition=8"
attr measurement $0=8192
attr network Network
attr processid 17679
attr repetition 8
attr replication #8
attr resultdir results
attr runnumber 88
attr seedset 88

vector 88  Network.dyn_peer[0]  lookupHopsSig:vector  ETV
88	22178	20.725656796268	18
88	22252	29.5	55
88	22276	31.6	20
88	22293	32.903969531392	12
88	22386	41.205579953903	82
88	22430	45.011940949267	37
88	22636	57.2	92
88	22674	60.5	32
88	22712	63.907285872637	33
88	22747	66.814556560131	28
88	22817	73.022966359151	61
88	22889	79.431332802388	63
88	22918	81.935741093377	24
88	22957	85.241054878918	32
88	23020	90.741104368971	54
88	23038	92.147131003863	13
88	23136	103.4	74
88	23149	104.4	9
88	23193	108.205259666792	37
88	23222	110.709673794826	24
88	23261	114.009997530792	32
88	23324	119.71138437608	56
88	23385	125.021166946503	52
88	23411	127.223355003019	21
88	23459	131.429093198404	41
88	23534	139.3	53
88	23622	147.2	78
88	23656	150.00632012102	27
88	23730	156.607426782664	65
88	23810	163.810904808872	71
88	23885	170.320717511289	64
88	23912	172.621214308075	22
88	23967	179.8	38
88	24013	183.9	40
88	24125	193.908579218643	99
88	24137	194.709914232789	7
88	24143	195.110196375815	3
88	24197	199.912761186243	47
88	24215	201.318018221408	13
88	24226	202.025472627775	6
88	24247	203.932596231945	18
88	24288	207.438674997963	34
88	24356	213.441126579298	59
88	24362	213.842140675122	3
88	24391	216.145923204806	22
88	24426	219.253863171113	30
88	24473	223.355099337224	40
88	24508	227.7	17
88	24541	230.5	27
88	24570	233.00658981478	24
88	24629	238.112632546249	50
88	24666	241.415717490095	32
88	24739	247.922496646298	64
88	24763	249.932092923794	19
88	24798	252.832200278762	28
88	24888	260.83523717288	79
88	24922	263.841186491018	29
88	24968	268.8	28
88	24993	271	21
88	25046	275.703043621103	46
88	25100	280.30941348799	45
88	25155	285.216404370811	48
88	25194	288.522836278233	32
88	25244	292.930208953319	43
88	25274	295.532831929587	25
88	25301	297.839175815575	22
88	25338	300.942154831073	30
88	25412	309.2	52
88	25478	315.1	58
88	25554	321.907568892133	67
88	25585	324.410189917084	24
88	25616	327.113705936752	26
88	25634	328.514559834911	13
88	25645	329.419056691897	8
88	25659	330.422974688987	9
88	25768	340.128863935834	96
88	25837	346.236210377905	60
88	25891	353.4	34
88	25929	356.7	32
88	26003	363.302577789016	65
88	26093	371.311855688688	79
88	26111	372.713158713454	13
88	26135	374.717022620875	19
88	26149	375.920960932124	11
88	26170	377.624659878864	16
88	26236	383.430065610917	57
88	26270	387.6	16
88	26299	390	23
88	26324	392.103144441437	20
88	26364	395.704963064537	35
88	26383	397.211775890957	14
88	26442	402.313795095102	50
88	26463	404.020811013599	16
88	26496	406.929961207377	28
88	26502	407.333794914994	3
88	26539	410.438030496996	30
88	26593	415.238110657652	47
88	26618	417.340302827438	20
88	26684	424.6	46
88	26757	431.2	65
88	26775	432.602778519769	13
88	26795	434.207015561095	15
88	26885	442.20911843225	79
88	26911	444.414665076715	21
88	26969	449.615606534221	51
88	27064	454.7	27
88	27133	457.8	30
88	27163	459.107353936226	12
88	27243	462.809640726209	36
88	27268	464.912191100057	20
88	27289	466.612317869732	16
88	27345	471.619766123854	49
88	27390	476.8	28
88	27424	479.9	30
88	27479	484.605597476465	46
88	27520	488.113426283706	34
88	27610	496.120359311626	79
88	27659	500.421211967496	42
88	27686	502.724786593667	22
88	27761	509.432523474627	66
88	27793	512.039913384966	25
88	27827	515.048153789255	29
88	27870	518.754585240059	36
88	27904	521.763561918998	29
88	27941	524.870938539744	30
88	28064	537.9	99
88	28141	544.7	67
88	28166	546.803358999826	20
88	28206	550.203558437537	33
88	28259	554.912147780332	46
88	28326	560.812381789149	58
88	28370	564.615042919735	37
88	28426	569.621034458584	49
88	28457	572.124239369907	24
88	28490	575.025307481048	28
88	28534	578.828119617035	37
88	28578	582.630109928478	37
88	28620	586.235439328844	35
88	28736	596.640231535252	103
88	28771	601.7	17
88	28809	605	32
88	28835	607.201566058136	21
88	28865	609.804058008393	25
88	28903	613.0042729705	31
88	28936	615.911881994792	28
88	28972	618.917889771115	29
88	29012	622.327572648895	33
88	29073	627.828185558793	54
88	29110	630.936100961732	30
88	29150	636.2	22
88	29177	638.6	23
88	29229	643.205425024931	45
88	29238	643.908255158273	6
88	29304	649.710809320063	57
88	29325	651.413423074372	16
88	29426	660.317702055571	88
88	29482	665.32358740051	49
88	29522	668.729386545076	33
88	29625	679.9	79
88	29677	684.4	44
88	29705	686.808898472103	23
88	29737	689.610502530095	27
88	29830	697.912117297983	82
88	29866	700.915176599194	29
88	29908	704.523985595775	35
88	29955	708.62771627658	40
88	30080	716	40
88	30219	722.5	64
88	30345	728.202707854127	56
88	30464	733.708885541711	54
88	30509	737.612772177484	38
88	30539	740.013082938872	23
88	30560	741.92278861993	18
88	30594	744.72661095978	27
88	30783	755	70
88	30854	758.2	31
88	30890	759.901175240201	16
88	30908	760.504845599568	5
88	31021	767.614570836528	70
88	31048	769.91945530186	22
88	31080	772.521254282829	25
88	31111	775.230037986042	26
88	31243	788.6	106
88	31311	794.7	60
88	31351	798.109617041661	33
88	31426	804.817375387209	66
88	31553	816.119133076718	112
88	31689	822.5	25
88	31901	830.9	83
88	31957	833.500985875248	25
88	32095	841.502492770624	79
88	32140	845.408382947576	38
88	32222	852.609016822512	71
88	32276	857.418585593698	47
88	32327	861.918956643619	44
88	32380	866.421018392701	44
88	32432	871.025136330531	45
88	32474	874.626508830958	35
88	32522	878.827171309422	41
88	32578	883.833723902932	49
88	32630	888.234343403334	43
88	32680	892.638141283165	43
88	32730	897.047503644936	43
88	32909	903.9	39
88	33093	909.6	56
88	33199	915.303043480161	56
88	33250	919.811693905405	44
88	33295	923.720812341642	38
88	33373	930.525451189981	67
88	33449	937.331861110856	67
88	33490	940.834003011037	34
88	33520	943.440559018261	25
88	33573	949.3	33
88	33646	955.9	65
88	33681	958.800141973856	28
88	33711	961.407336598694	25
88	33789	968.208266552641	67
88	33862	974.708596403369	64
88	33925	980.215464600499	54
88	34188	994.5	105
88	34273	998.4	38
88	34367	1002.807473210429	43
88	34441	1006.116165472352	32
88	34537	1010.518402443094	43
88	34831	1022.7	87
88	34850	1023.6	8
88	35118	1035.807673042875	121
88	35134	1036.409182550008	5
88	35201	1040.919077655109	44
88	35277	1047.728713266641	67
88	35291	1048.736964730525	9
88	35314	1050.642930750637	18
88	35323	1051.345623055768	6
88	35434	1061.254833464116	98
88	35611	1067.8	38
88	35825	1074.4	65
88	35992	1081.301997759134	68
88	36100	1086.207822679464	48
88	36200	1090.81659417094	45
88	36286	1094.817425472429	39
88	36392	1100.6	26
88	36485	1105	43
88	36519	1106.405702085529	13
88	36545	1107.607697764287	11
88	36567	1108.508335364522	8
88	36622	1112.414141972363	38
88	36648	1114.615353858845	21
88	36712	1122.5	45
88	36793	1129.9	73
88	36868	1136.406260374337	64
88	36905	1139.709630253163	32
88	36947	1143.314631484876	35
88	37019	1151	50
88	37055	1154.1	30
88	37113	1159.309718108933	51
88	37153	1162.715061810283	33
88	37192	1166.015638751178	32
88	37226	1169.024826179149	29
88	37262	1172.029202849031	29
88	37286	1174.030450630222	19
88	37320	1177.036978236924	29
88	37335	1178.137140939913	10
88	37430	1189.2	72
88	37471	1192.8	35
88	37503	1195.608337204486	27
88	37580	1202.308531631961	66
88	37604	1204.308808798024	19
88	37638	1207.315000681837	29
88	37703	1213.018177518604	56
88	37743	1216.424705647194	33
88	37797	1223.4	34
88	37840	1227.2	37
88	37918	1234.006555709082	67
88	37981	1239.707782643681	56
88	38023	1243.315764415107	35
88	38047	1245.316777862984	19
88	38090	1249.026431902852	36
88	38118	1251.435689240261	23
88	38151	1254.137957555006	26
88	38211	1259.542681172221	53
88	38257	1263.545647198724	39
88	38346	1271.446002578168	78
88	38364	1272.851849210132	13
88	38431	1280.7	47
88	38448	1282.1	13
88	38489	1285.804543714083	36
88	38574	1293.307592041964	74
88	38636	1298.708895170328	53
88	38709	1305.213355990106	64
88	38803	1313.613381273932	83
88	38902	1322.318514991946	86
88	38936	1325.328031963578	29
88	38984	1329.535086468562	41
88	39094	1337.2	52
88	39122	1339.7	24
88	39151	1342.007644909671	22
88	39185	1345.01349525005	29
88	39248	1350.520744088817	54
88	39271	1352.425297161411	18
88	39300	1354.933363354625	24
88	39328	1357.338729010633	23
88	39383	1362.040274309901	46
88	39441	1369.8	38
88	39508	1375.8	59
88	39526	1377.208388194174	13
88	39542	1378.413241207064	11
88	39574	1381.214712497184	27
88	39595	1382.91812614771	16
88	39612	1384.221629020338	12
88	39641	1386.727847475974	24
88	39669	1389.129701644867	23
88	39687	1390.536551027151	13
88	39730	1394.241385196475	36
88	40011	1409.3	113
88	40100	1413.5	41
88	40164	1417.306855742866	37
88	40212	1421.511205647699	41
88	40245	1424.216301885165	26
88	40276	1426.918879038525	26
88	40320	1430.725707695489	37
88	40347	1433.028330808242	22
88	40419	1439.431082048569	63
88	40442	1442.5	5
88	40528	1450.2	76
88	40580	1454.802820987538	45
88	40627	1458.903853255887	40
88	40711	1466.304058313017	73
88	40751	1469.912690948791	35
88	40801	1474.12128247459	41
88	40862	1479.62502917822	54
88	40910	1483.826042231223	41
88	40954	1487.635754148356	37
88	40993	1490.941730531681	32
88	41041	1495.142508883079	41
88	41116	1503.3	53
88	41162	1507.4	40
88	41219	1512.305980352037	48
88	41243	1514.315762489069	19
88	41321	1521.322863029345	69
88	41377	1526.127807798635	47
88	41383	1526.533926355564	3
88	41458	1533.236123421441	66
88	41478	1534.841202059175	15
88	41485	1535.350137095065	4
88	41506	1537.053140194942	16
88	41529	1538.955126386559	18
88	41563	1543.7	17
88	41599	1546.8	30
88	41627	1549.20756468675	23
88	41661	1552.017386886944	27
88	41690	1554.51772346915	24
88	41721	1557.21879236933	26
88	41738	1558.522210484514	12
88	41814	1567.7	57
88	41861	1571.9	41
88	41906	1575.803154260942	38
88	41940	1578.6099901647	27
88	41955	1579.912287738874	12
88	42099	1592.716009033144	127
88	42108	1593.424407326021	6
88	42148	1596.833729796827	33
88	42191	1600.537373187509	36
88	42239	1606.8	28
88	42270	1609.6	27
88	42330	1614.802302820335	51
88	42346	1616.010346582247	11
88	42374	1618.415974195233	23
88	42422	1622.619054791374	41
88	42469	1626.721896510842	40
88	42489	1628.330560390966	15
88	42518	1630.832408357281	24
88	42545	1633.139677455487	22
88	42573	1635.546890698218	23
88	42672	1644.255785476866	86
88	42756	1651.856491167757	75
88	42807	1657.2	32
88	42854	1661.4	41
88	42893	1664.701347213417	32
88	42987	1673.104807448758	83
88	42997	1673.905936851793	7
88	43013	1675.112593129978	11
88	43079	1680.913899792134	57
88	43142	1686.419862874519	54
88	43157	1687.721145692068	12
88	43193	1690.728837739115	29
88	43362	1700.2	62
88	43413	1702.5	22
88	43513	1707.202915015635	46
88	43559	1709.204518669063	19
88	43619	1711.906945750177	26
88	43743	1717.61369357182	56
88	43779	1719.8209332116	21
88	43835	1725.9	39
88	43910	1732.5	65
88	43919	1733.201296742323	6
88	43993	1739.8072672134	65
88	44066	1746.116611646554	62
88	44157	1754.225078877024	80
88	44207	1758.625793902224	43
88	44247	1764.3	23
88	44283	1767.6	32
88	44309	1769.801546074203	21
88	44339	1772.206458764311	23
88	44364	1774.316170123028	20
88	44417	1779.022440834619	46
88	44445	1781.431306999389	23
88	44554	1792.6	86
88	44585	1795.4	27
88	44640	1800.102944329453	46
88	44679	1803.607144979748	34
88	44769	1811.614661207841	79
88	44814	1815.514914348834	38
88	44868	1820.119236384798	45
88	44894	1822.325736806329	21
88	44968	1828.926056123908	65
88	45017	1833.235469329323	42
88	45054	1836.339531939028	30
88	45158	1843.1	31
88	45250	1848.1	49
88	45296	1852.104066235246	39
88	45357	1857.609596824631	54
88	45620	1870.5	105
88	45667	1872.7	21
88	45813	1879.406586139453	66
88	45905	1883.710199409389	42
88	45985	1887.315075652707	35
88	46121	1893.522184749043	61
88	46217	1897.92450734904	43
88	46489	1911.6	116
88	46515	1913.9	22
88	46534	1915.40937056062	14
88	46567	1918.118458606297	26
88	46597	1920.719281233764	25
88	46654	1925.819361091557	50
88	46700	1929.82144838586	39
88	46718	1931.230742680779	13
88	46748	1933.833657588979	25
88	46828	1941.8	58
88	46856	1944.1	22
88	46911	1949.004713445166	48
88	46932	1950.70957788496	16
88	46962	1953.318228225295	25
88	47039	1960.01849576084	66
88	47088	1964.32297856679	42
88	47148	1972.1	41
88	47223	1978.9	67
88	47238	1980.005114933573	10
88	47295	1985.10542314774	50
88	47316	1986.814371177327	16
88	47356	1990.2175127301	33
88	47385	1992.722054434638	24
88	47424	1996.031490990536	32
88	47462	1999.433474943258	33
88	47530	2005.439051653523	59
88	47596	2011.248013697342	57
88	47636	2014.650976672068	33
88	47671	2017.753533765245	30
88	47761	2026.6	66
88	47795	2029.7	30
88	47886	2037.806322369114	80
88	47965	2044.708629272307	68
88	48012	2048.811287921561	40
88	48069	2053.916227990762	50
88	48123	2058.519445412452	45
88	48159	2061.728529221899	31
88	48197	2064.931724598781	31
88	48225	2067.335211793347	23
88	48267	2070.935626728946	35
88	48334	2076.840658296064	58
88	48404	2081.6	16
88	48504	2086.2	45
88	48584	2090.608685794372	43
88	48643	2095.910210834135	52
88	48693	2100.110243449575	41
88	48727	2103.112211026503	29
88	48772	2107.020235679487	38
88	48834	2114.3	43
88	48871	2117.7	33
88	48913	2121.300997933649	35
88	48958	2125.209533472218	38
88	49051	2133.511009819429	82
88	49083	2136.115928064273	25
88	49141	2141.323148242396	51
88	49174	2144.026492392285	26
88	49203	2146.53275638908	24
88	49318	2156.836056829945	102
88	49385	2162.739719912747	58
88	49459	2171.2	52
88	49489	2173.9	26
88	49525	2176.905570639187	29
88	49570	2180.81036715584	38
88	49601	2183.514932254828	26
88	49610	2184.016362191057	4
88	49673	2189.716809898659	56
88	49725	2194.121886159044	43
88	49804	2201.223664809588	70
88	49811	2201.73314261193	4
88	49861	2207	30
88	49903	2210.7	36
88	49932	2213.200024885381	24
88	49983	2217.700858445157	44
88	50040	2222.606868870676	48
88	50076	2225.806949643689	31
88	50098	2227.616582970137	17
88	50230	2239.416968134531	117
88	50277	2243.518350321421	40
88	50308	2246.027258116785	24
88	50527	2258.5	85
88	50656	2264.4	58
88	50696	2266.106694654934	16
88	50766	2271.210297985661	50
88	50833	2277.119947623319	58
88	50851	2278.522673719175	13
88	50864	2279.627922600273	10
88	50928	2285.22921618521	55
88	50975	2290.7	27
88	51009	2293.8	30
88	51030	2295.507089094363	16
88	51063	2298.211322571327	26
88	51097	2301.219675245749	29
88	51134	2304.326394615017	30
88	51157	2306.232363686465	18
88	51177	2310.5	5
88	51225	2314.8	42
88	51268	2318.501587744199	36
88	51306	2321.907601241695	33
88	51340	2324.708947878738	27
88	51392	2329.318413287391	45
88	51504	2339.320616475265	99
88	51540	2342.325787146678	29
88	51652	2352.330491753262	99
88	51674	2354.131658107414	17
88	51711	2357.436614778925	32
88	51737	2359.637314580551	21
88	51825	2367.438484890351	77
88	52054	2375.3	53
88	52191	2379.5	41
88	52359	2384.702428663	51
88	52435	2387.109273196821	23
88	52495	2390.11826863672	29
88	52591	2398.72818360732	85
88	52639	2402.938057405604	41
88	52671	2405.74371790803	27
88	52746	2412.249993863438	64
88	52858	2420.3	43
88	52911	2425.1	47
88	52973	2430.501115644972	53
88	53011	2433.903047897279	33
88	53048	2437.006455905338	30
88	53100	2441.612237993588	45
88	53159	2446.716582652446	50
88	53198	2450.02294709022	32
88	53276	2459.6	56
88	53358	2466.9	72
88	53414	2471.909853675737	49
88	53448	2474.714893255062	27
88	53481	2477.619232137229	28
88	53563	2484.826172574695	71
88	53679	2497	90
88	53718	2500.4	33
88	53767	2504.706763771811	42
88	53803	2507.909276078726	31
88	53825	2509.709376305219	17
88	53870	2513.618556366509	38
88	53911	2517.119637887864	34
88	53951	2520.524914993254	33
88	53993	2524.133728850664	35
88	54039	2528.142384454538	39
88	54072	2531.045759871627	28
88	54109	2534.152736540431	30
88	54145	2537.36047956046	31
88	54180	2540.268030942308	28
88	54221	2543.976749563067	36
88	54256	2546.879226888247	28
88	54289	2551.6	16
88	54327	2554.9	32
88	54354	2557.201669738099	22
88	54397	2560.902619335643	36
88	54475	2567.912127571907	69
88	54547	2575	50
88	54680	2587	119
88	54718	2590.200966908859	31
88	54762	2594.005063311771	37
88	54769	2594.514791039555	4
88	54791	2596.321798720306	17
88	54842	2600.830563529	44
88	54875	2603.733450657302	28
88	55000	2610.2	42
88	55095	2614.6	43
88	55227	2620.608259513545	59
88	55311	2624.409038920143	37
88	55337	2625.618316012449	11
88	55407	2628.818450821733	31
88	55458	2632.421536892451	35
88	55492	2635.431487561158	29
88	55530	2638.634670798523	31
88	55570	2642.036401384284	33
88	55631	2647.54528173027	54
88	55692	2652.853801697012	52
88	55735	2656.557147440085	36
88	55743	2657.161605716984	5
88	55778	2660.063353849668	28
88	55836	2665.269312315143	51
88	55897	2670.570523547699	52
88	56027	2678.4	44
88	56136	2683.5	50
88	56222	2687.406928758267	38
88	56305	2691.115602220007	36
88	56356	2693.418466368388	22
88	56391	2694.926139577502	14
88	56437	2697.036096431508	20
88	56497	2701.942208619287	48
88	56515	2703.344029577238	13
88	56520	2703.650674327412	2
88	56538	2705.054985016368	13
88	56543	2705.362959606631	2
88	56561	2706.769994369682	13
88	56646	2714.272764217455	74
88	56680	2719.7	17
88	56749	2725.9	61
88	56792	2729.607288373573	36
88	56848	2734.410485656111	47
88	56906	2739.619278881376	51
88	57033	2746.2	42
88	57133	2751.2	49
88	57172	2754.509188134996	32
88	57201	2757.017153282647	24
88	57271	2763.222090808569	61
88	57330	2768.327721994471	50
88	57338	2768.92869252831	5
88	57388	2773.33797424979	43
88	57429	2778.3	23
88	57451	2780.2	18
88	57552	2789.306556661892	90
88	57595	2793.011038981454	36
88	57631	2796.016772727523	29
88	57669	2799.4262252389	33
88	57696	2801.728733140946	22
88	57747	2806.031806809644	42
88	57783	2809.240144701425	31
88	57831	2813.444075035673	41
88	57877	2817.453028176537	39
88	57894	2818.761554051929	12
88	57992	2829.4	74
88	58017	2831.6	21
88	58069	2836.006868542961	43
88	58116	2840.11272116749	40
88	58185	2846.222140155911	60
88	58255	2852.427767873591	61
88	58291	2855.629307332414	31
88	58385	2865.3	73
88	58407	2867.2	18
88	58429	2869.008625551762	17
88	58440	2869.911411477324	8
88	58453	2870.815864196525	8
88	58503	2875.219932546222	43
88	58529	2877.425209738949	21
88	58550	2880.6	6
88	58579	2883.2	25
88	58635	2888.000080944683	47
88	58705	2894.201846323354	61
88	58762	2899.302935697511	50
88	58893	2906.4	44
88	58972	2910.1	36
88	59074	2914.801312684477	46
88	59100	2915.908899718939	10
88	59154	2918.215439330683	22
88	59232	2921.816447492396	35
88	59262	2923.423472276614	15
88	59279	2924.728254390554	12
88	59306	2927.030243547276	22
88	59375	2934.9	49
88	59406	2937.7	27
88	59419	2938.607515941457	8
88	59445	2940.816223799918	21
88	59465	2942.416613893102	15
88	59518	2947.119599460431	46
88	59540	2948.927033866585	17
88	59563	2950.834716915834	18
88	59610	2954.93743330926	40
88	59696	2964.2	62
88	59765	2970.4	61
88	59782	2971.906941267766	14
88	59811	2974.214878686388	22
88	59928	2984.722392737263	104
88	59986	2989.926693204288	51
88	60105	3000.432684244276	104
88	60117	3001.44200342131	9
88	60186	3008.7	47
88	60218	3011.6	28
88	60287	3017.709193028926	60
88	60321	3020.516140045714	27
88	60348	3022.823379853532	22
88	60370	3024.628709163774	17
88	60416	3028.631784807749	39
88	60447	3031.337133333096	26
88	60465	3032.744499352625	13
88	60612	3041.2	52
88	60687	3044.6	33
88	60751	3047.500299314348	28
88	60816	3051.004934285584	34
88	60857	3054.50850382566	34
88	60888	3057.210762688904	26
88	60917	3059.71539369845	24
88	60966	3065.2	32
88	61002	3068.3	30
88	61056	3073.102231697186	47
88	61094	3076.307089812461	31
88	61122	3078.708237673788	23
88	61210	3086.51638771656	77
88	61241	3089.223360608197	26
88	61409	3096.6	46
88	61615	3106.1	94
88	61651	3107.802494445464	16
88	61756	3113.609574172219	57
88	61780	3115.615026818603	19
88	61807	3117.924157673435	22
88	61890	3125.224183910766	72
88	61928	3128.427077892564	31
88	61998	3137	50
88	62045	3141.2	41
88	62103	3146.201419320947	49
88	62156	3150.910301505976	46
88	62190	3153.910832073971	29
88	62230	3157.312799918265	33
88	62248	3158.719491004049	13
88	62270	3160.526189231087	17
88	62278	3161.126671347288	5
88	62296	3162.530469419104	13
88	62333	3165.839264776688	32
88	62395	3171.247879716232	53
88	62430	3175.9	19
88	62457	3178.1	21
88	62520	3183.802926557352	56
88	62549	3186.110442052412	22
88	62574	3188.210832759298	20
88	62619	3192.112943114063	38
88	62645	3194.315791149951	21
88	62723	3203.9	59
88	62773	3208.2	42
88	62832	3213.50795974242	52
88	62875	3217.214712228839	36
88	62924	3221.516210844187	42
88	62949	3223.619710006018	20
88	63032	3230.920001473543	72
88	63105	3239.1	51
88	63145	3242.6	34
88	63208	3248.101256892839	54
88	63248	3251.704441589121	35
88	63268	3253.30669320708	15
88	63352	3260.716645971288	73
88	63380	3263.126364020801	23
88	63423	3266.828805871298	36
88	63449	3269.028820206128	21
88	63493	3272.838146022058	37
88	63524	3275.539771215755	26
88	63560	3278.547073332751	29
88	63636	3287.6	56
88	63681	3291.6	39
88	63741	3296.801047379861	51
88	63790	3301.10387002187	42
88	63829	3304.405847049976	32
88	63843	3305.606748468073	11
88	63857	3306.614484322457	9
88	63914	3311.718183450109	50
88	63969	3316.426599056594	46
88	64084	3326.73158044258	102
88	64098	3327.931989319604	11
88	64130	3330.538287197111	25
88	64143	3331.644145332655	10
88	64160	3332.946182383961	12
88	64246	3342.3	63
88	64315	3348.5	61
88	64346	3351.208512907545	26
88	64406	3356.40907757536	51
88	64443	3359.712947385075	32
88	64481	3362.917751266231	31
88	64502	3364.626792195717	16
88	64556	3369.432352420355	47
88	64591	3372.338630412072	28
88	64636	3378.7	27
88	64688	3383.4	46
88	64730	3387.000763217494	35
88	64758	3389.402064471481	23
88	64825	3395.306591520678	58
88	64887	3400.707998524611	53
88	64899	3401.71487481236	9
88	64956	3406.620184479814	48
88	65014	3411.827036615071	51
88	65069	3416.536354579451	46
88	65123	3421.340141354743	47
88	65190	3428.5	45
88	65214	3430.6	20
88	65238	3432.606041834852	19
88	65253	3433.915031741114	12
88	65292	3437.216846561996	32
88	65335	3440.916963011872	36
88	65385	3445.322042546	43
88	65441	3450.130380739004	47
88	65453	3451.135696051232	9
88	65499	3455.141401576604	39
88	65541	3458.745578029413	35
88	65621	3465.950516713956	71
88	65663	3469.559619332948	35
88	65707	3473.365531824254	37
88	65864	3481.6	56
88	65907	3483.5	18
88	65938	3484.808504302576	12
88	65986	3487.011111811951	21
88	66100	3492.218415517047	51
88	66197	3497.320883352916	50
88	66226	3499.82761904541	24
88	66267	3503.334719510484	34
88	66307	3506.73883641025	33
88	66358	3511.245330710897	44
88	66402	3515.048414960915	37
88	66466	3520.65433145194	55
88	66529	3525.2	12
88	66580	3527.4	21
88	66678	3531.805591457486	43
88	66771	3539.50769276228	76
88	66798	3541.81458374371	22
88	66823	3543.924307950883	20
88	66850	3546.028846749808	20
88	66882	3548.836335799719	27
88	66955	3555.336988247329	64
88	67082	3560.2	22
88	67167	3562.8	25
88	67376	3569.401862168989	65
88	67434	3571.411394448801	19
88	67488	3573.814094445329	23
88	67584	3578.119817249703	42
88	67647	3581.022305291986	28
88	67796	3588.7	47
88	67871	3593.2	44
88	67907	3596.201290682635	29
88	67939	3599.007035502522	27
88	67945	3599.413512804082	3
88	67981	3602.418984086874	29
88	67997	3603.819337314462	13
88	68027	3606.223133256078	23
88	68045	3607.83162016824	15
88	68225	3618.3	83
88	68291	3624.2	58
88	68318	3626.506284218286	22
88	68346	3628.912665469574	23
88	68371	3631.021813847147	20
88	68399	3633.426606897443	23
88	68459	3638.631546192896	51
88	68479	3640.235962584873	15
88	68497	3641.845108668338	15
88	68641	3654.649972033858	127
88	68707	3662.4	44
88	68712	3662.8	3
88	68740	3665.206435146965	23
88	68780	3668.614659892828	33
88	68834	3673.423341135165	47
88	68870	3676.424266211605	29
88	68921	3680.926639094928	44
88	68965	3684.734662289421	37
88	68978	3685.835715266381	10
88	69017	3689.140731442899	32
88	69040	3691.043809642181	18
88	69079	3694.34583726613	32
88	69118	3697.850463549705	34
88	69251	3704.4	44
88	69276	3705.6	11
88	69296	3706.400988538532	7
88	69328	3708.707547280861	22
88	69345	3710.009479494642	12
88	69371	3712.214814061324	21
88	69400	3714.719263310336	24
88	69498	3725.7	77
88	69517	3727.3	15
88	69537	3728.903558483659	15
88	69559	3730.705617780501	17
88	69638	3737.807102939898	70
88	69666	3740.014451622205	21
88	69704	3743.418544728133	33
88	69739	3746.320773374311	28
88	69785	3750.32611740981	39
88	69860	3755.8	18
88	69983	3761.5	56
88	70027	3763.507959977411	19
88	70089	3767.210376493802	36
88	70139	3771.619925046408	43
88	70184	3775.529091754856	38
88	70208	3777.529553230872	19
88	70281	3785.4	54
88	70312	3788	25
88	70344	3790.804070236678	27
88	70367	3792.713984643637	18
88	70403	3795.921173123732	31
88	70457	3800.522236253319	45
88	70492	3803.627123753898	30
88	70539	3809	30
88	70588	3813.4	43
88	70625	3816.506969374362	30
88	70661	3819.716379612097	31
88	70674	3820.620268589266	8
88	70745	3826.925179895736	62
88	70766	3828.63274034099	16
88	70785	3830.137883257912	14
88	70824	3833.638566229503	34
88	70857	3836.339674712271	26
88	70880	3838.240007909171	18
88	70906	3840.446561123803	21
88	70940	3843.455482138702	29
88	70983	3848.5	25
88	71010	3850.9	23
88	71087	3857.808254948596	68
88	71165	3864.612850528347	67
88	71296	3878.3	103
88	71327	3881.1	27
88	71375	3885.304220808339	41
88	71417	3888.908765785926	35
88	71481	3894.513417239816	55
88	71547	3900.315347416312	57
88	71744	3920.3	163
88	71847	3929.7	93
88	71901	3934.300385058841	45
88	71958	3939.400398208435	50
88	71992	3942.201633934098	27
88	72063	3948.501786302115	62
88	72118	3953.405583209778	48
88	72150	3956.009089589748	25
88	72177	3958.311922325969	22
88	72204	3960.616866452707	22
88	72229	3962.722473303171	20
88	72282	3967.425580468078	46
88	72500	3978.4	84
88	72541	3980.2	17
88	72651	3985.302710353413	50
88	72697	3987.809027085159	24
88	72736	3991.026665870921	31
88	72790	3995.831419701032	47
88	72843	4000.332943857687	44
88	72887	4004.139206327246	37
88	72917	4006.741083683836	25
88	72949	4009.547907392327	27
88	72981	4012.152867344785	25
88	73013	4014.960067989883	27
88	73115	4022.6	46
88	73148	4025.6	29
88	73163	4026.70778525701	10
88	73187	4028.716272834285	19
88	73286	4037.616529474609	88
88	73304	4039.023308994803	13
88	73374	4045.223832615728	61
88	73400	4047.424465028697	21
88	73468	4053.429147851085	59
88	73554	4061.035297831811	75
88	73600	4065.037943645279	39
88	73791	4075.1	71
88	73804	4075.7	5
88	73818	4076.204987302219	4
88	73962	4082.81401472126	65
88	74012	4085.015691878493	21
88	74020	4085.320538868743	2
88	74104	4089.12360357246	37
88	74113	4089.433180899844	2
88	74187	4094.334317163657	48
88	74218	4097.038625636694	26
88	74272	4103.6	36
88	74330	4108.7	50
88	74355	4110.808398016926	20
88	74408	4115.517049213982	46
88	74430	4117.326168610005	17
88	74470	4120.734542028031	33
88	74532	4126.139455150198	53
88	74571	4132.2	22
88	74617	4136.3	40
88	74686	4142.404805126932	60
88	74712	4144.610737314307	21
88	74736	4146.612157971818	19
88	74790	4151.415849635222	47
88	74917	4162.725662363844	112
88	74993	4171.4	54
88	75025	4174.1	26
88	75121	4182.702593021844	85
88	75177	4187.710077890383	49
88	75211	4190.513646670451	27
88	75248	4193.81617984034	32
88	75280	4196.418114541129	25
88	75326	4200.420050123939	39
88	75357	4203.12589939037	26
88	75407	4207.532249842108	43
88	75469	4211.3	13
88	75513	4213.3	19
88	75540	4214.403179524685	10
88	75667	4220.204866665289	57
88	75711	4222.210659840893	19
88	75721	4222.613230588388	3
88	75771	4224.822285640666	21
88	75906	4232.1	41
88	75935	4233.5	13
88	76009	4238.505810626617	49
88	76030	4240.210696401502	16
88	76061	4242.913919844116	26
88	76080	4244.416747118705	14
88	76097	4245.919920164572	14
88	76111	4246.923337491724	9
88	76127	4248.129232612435	11
88	76144	4249.638304510716	14
88	76181	4252.741729174529	30
88	76238	4259.9	39
88	76303	4265.7	57
88	76359	4270.504533012753	47
88	76379	4272.1122006416	15
88	76407	4274.515059680871	23
88	76440	4277.417735845565	28
88	76473	4280.118854938421	26
88	76521	4284.326154395315	41
88	76569	4288.535196622038	41
88	76679	4295.6	36
88	76694	4296.2	5
88	76710	4296.907243737652	6
88	76959	4308.208745374341	112
88	77047	4312.209608808	39
88	77228	4323.512329990135	112
88	77278	4327.921921891698	43
88	77302	4329.931527970307	19
88	77309	4330.239372233834	2
88	77332	4332.148662969492	18
88	77425	4340.452986465672	82
88	77481	4347.6	36
88	77519	4350.9	32
88	77545	4353.106006483212	21
88	77562	4354.409468991644	12
88	77584	4356.213557761145	17
88	77607	4358.118646700634	18
88	77634	4360.421688993911	22
88	77741	4372.4	84
88	77805	4378.1	56
88	77858	4382.807869750412	46
88	77901	4386.508817019203	36
88	77910	4387.218812004666	6
88	77959	4391.524817106507	42
88	77997	4394.72915575436	31
88	78044	4398.832148414723	40
88	78116	4405.235534261903	63
88	78208	4413.442187800249	81
88	78351	4420.9	49
88	78434	4424.7	37
88	78468	4426.207404740147	14
88	78552	4430.011135535816	37
88	78585	4431.516695195083	14
88	78643	4434.02282808041	24
88	78664	4435.632629661055	15
88	78716	4440.033538509838	43
88	78758	4443.841526602786	37
88	78788	4446.242205194805	23
88	78815	4448.544457903718	22
88	78838	4450.447307567635	18
88	78918	4459.8	58
88	78992	4466.3	64
88	79025	4469.208539737586	28
88	79050	4471.318473694317	20
88	79136	4478.927094294344	75
88	79189	4483.633425037326	46
88	79220	4486.13370292906	24
88	79276	4491.13714704816	49
88	79341	4498.3	43
88	79380	4501.9	35
88	79402	4503.708507218619	17
88	79434	4506.311501929796	25
88	79450	4507.721043776968	13
88	79493	4511.421676393584	36
88	79519	4513.629039086845	21
88	79601	4518.1	21
88	79649	4520.3	21
88	79732	4527.006362326971	66
88	79804	4533.408546841029	63
88	79877	4539.914961950421	64
88	79907	4542.322627600613	23
88	79924	4543.828677008973	14
88	79956	4546.437654052138	25
88	80030	4555.2	52
88	80045	4556.4	11
88	80084	4559.909100350616	34
88	80144	4565.116129716576	51
88	80166	4566.922909554514	17
88	80181	4568.024179325372	10
88	80207	4570.22453688764	21
88	80249	4576.5	25