file 213623 1369149732                                          
version 2
run Join-24-20130429-12:49:50-17679
attr configname Join
attr datetime 20130429-12:49:50
attr experiment "\"Join\""
attr inifile omnetpp.ini
attr iterationvars $0=128
attr iterationvars2 "$0=128, $repetition=4"
attr measurement $0=128
attr network Network
attr processid 17679
attr repetition 4
attr replication #4
attr resultdir results
attr runnumber 24
attr seedset 24
vector 24  Network.dyn_peer[0]  lookupHopsSig:vector  ETV
24	441 213182 595 80325 20.022495508584 7558.341202722684 8199 0 16 37562 218550
