file 257493 1369149732                                          
version 2
run Join-68-20130429-12:52:13-17679
attr configname Join
attr datetime 20130429-12:52:13
attr experiment "\"Join\""
attr inifile omnetpp.ini
attr iterationvars $0=2048
attr iterationvars2 "$0=2048, $repetition=8"
attr measurement $0=2048
attr network Network
attr processid 17679
attr repetition 8
attr replication #8
attr resultdir results
attr runnumber 68
attr seedset 68
vector 68  Network.dyn_peer[0]  lookupHopsSig:vector  ETV
68	444 257049 5942 254690 20.731387094023 21391.23654455007 9061 1 92 175473 4422985
