file 275137 1367232947                                          
version 2
run Join-82-20130429-12:55:18-17679
attr configname Join
attr datetime 20130429-12:55:18
attr experiment "\"Join\""
attr inifile omnetpp.ini
attr iterationvars $0=8192
attr iterationvars2 "$0=8192, $repetition=2"
attr measurement $0=8192
attr network Network
attr processid 17679
attr repetition 2
attr replication #2
attr resultdir results
attr runnumber 82
attr seedset 82

vector 82  Network.dyn_peer[0]  lookupHopsSig:vector  ETV
82	444 274693 22245 488488 21.717963643966 37450.319183755713 9452 1 185 335308 16580684
