file 215736 1369149731                                          
version 2
run Join-20-20130429-12:49:43-17679
attr configname Join
attr datetime 20130429-12:49:43
attr experiment "\"Join\""
attr inifile omnetpp.ini
attr iterationvars $0=128
attr iterationvars2 "$0=128, $repetition=0"
attr measurement $0=128
attr network Network
attr processid 17679
attr repetition 0
attr replication #0
attr resultdir results
attr runnumber 20
attr seedset 20
vector 20  Network.dyn_peer[0]  lookupHopsSig:vector  ETV
20	441 215295 581 83620 20.010954893233 7809.364894745469 8270 0 17 40508 253878
