version 2
run Join-57-20130429-12:51:16-17679
attr configname Join
attr datetime 20130429-12:51:16
attr experiment "\"Join\""
attr inifile omnetpp.ini
attr iterationvars $0=1024
attr iterationvars2 "$0=1024, $repetition=7"
attr measurement $0=1024
attr network Network
attr processid 17679
attr repetition 7
attr replication #7
attr resultdir results
attr runnumber 57
attr seedset 57

vector 57  Network.dyn_peer[0]  lookupHopsSig:vector  ETV
57	3115	20.709871422061	30
57	3136	22.415931053801	16
57	3161	24.525711159707	20
57	3171	25.333476278023	7
57	3200	29.4	14
57	3221	31.2	17
57	3249	33.609822137169	23
57	3271	35.413587660674	17
57	3293	37.222446658682	17
57	3317	39.229391508066	19
57	3334	40.530282761099	12
57	3357	42.432933021861	18
57	3386	44.93550298888	24
57	3410	46.938895688545	19
57	3429	48.439259921115	14
57	3440	49.342327989591	8
57	3485	54.5	25
57	3507	56.4	18
57	3522	57.703414721842	12
57	3544	59.503563046224	17
57	3553	60.009263117549	4
57	3566	61.110396883551	10
57	3606	64.513380592335	33
57	3617	65.419380053563	8
57	3676	69	10
57	3725	71.2	21
57	3775	73.205646930777	19
57	3811	75.207100342386	19
57	3825	76.207929195775	9
57	3841	77.614796905901	13
57	3862	79.322558071074	16
57	3874	80.128517587318	7
57	3907	85.7	17
57	3919	86.6	8
57	3931	87.604030730153	9
57	3948	88.908377214084	12
57	3990	92.513539818139	35
57	4011	94.222243787995	16
57	4061	101	30
57	4084	103	19
57	4108	105.008098188203	19
57	4134	107.215928771539	21
57	4152	108.620902774863	13
57	4188	111.821666682791	31
57	4218	114.23065516256	23
57	4247	116.731212226845	24
57	4272	120.7	7
57	4289	122.1	13
57	4302	123.209430571282	10
57	4321	124.716524427402	14
57	4362	128.221807027977	34
57	4368	128.630516367862	3
57	4394	130.839584823618	21
57	4419	134.7	7
57	4435	136	12
57	4450	137.308058324225	12
57	4477	139.608093184972	22
57	4499	141.414295224075	17
57	4512	142.316364885452	8
57	4524	143.324754646902	9
57	4535	144.025790340038	6
57	4547	145.02733345938	9
57	4556	145.733561845534	6
57	4573	147.033779769042	12
57	4587	148.034608468392	9
57	4607	149.839935174344	17
57	4655	154.8	28
57	4663	155.5	6
57	4683	157.105364014597	15
57	4700	158.410422572952	12
57	4723	160.315226367572	18
57	4735	161.322319724803	9
57	4763	163.731975714686	23
57	4787	166.6	6
57	4809	168.5	18
57	4828	170.001680789641	14
57	4848	171.808162214453	17
57	4870	173.613649421387	17
57	4889	175.120921507407	14
57	4911	176.928119598453	17
57	4945	181.9	19
57	4966	183.7	17
57	4982	184.906417724159	11
57	5001	186.411867888294	14
57	5023	188.21819757447	17
57	5050	190.526245358699	22
57	5071	192.234281057425	16
57	5095	194.236638753917	19
57	5126	199.3	13
57	5133	199.9	5
57	5152	201.401114270053	14
57	5165	202.301317856122	8
57	5178	203.405689909803	10
57	5198	205.011971871061	15
57	5208	205.813723328336	7
57	5231	207.721100510031	18
57	5239	208.125179821672	3
57	5251	209.132058890834	9
57	5258	209.641478632646	4
57	5266	210.051230983165	3
57	5292	212.258068702683	21
57	5339	216.3	3
57	5394	218.6	22
57	5404	219.006593655857	3
57	5433	220.116434460053	10
57	5466	221.725346238556	15
57	5508	225.329078231732	35
57	5526	228	0
57	5538	229.1	10
57	5565	231.401779757204	22
57	5582	232.709487996305	12
57	5594	233.71410693684	9
57	5628	237.6	16
57	5647	239.2	15
57	5677	241.806988556073	25
57	5699	243.60763379584	17
57	5703	243.812581636024	1
57	5718	244.915682850117	10
57	5762	250.4	24
57	5784	252.3	18
57	5806	254.104407199537	17
57	5815	254.804657155256	6
57	5838	256.708083314324	18
57	5842	256.911258997832	1
57	5869	260.9	9
57	5889	262.6	16
57	5918	265.108543967343	24
57	5936	266.509454838153	13
57	5948	267.518670870511	9
57	5958	268.124910805787	5
57	5962	268.333105611834	1
57	5984	272.4	4
57	5989	272.8	3
57	5998	273.506026981188	6
57	6014	274.71041875823	11
57	6031	276.014163972349	12
57	6047	277.420532065976	13
57	6061	278.422778446806	9
57	6095	283.9	19
57	6118	285.9	19
57	6137	287.403345755883	14
57	6158	289.110281481735	16
57	6181	291.018749911071	18
57	6205	293.023192904103	19
57	6223	294.431345112026	13
57	6232	295.136996261	6
57	6254	296.94690218022	17
57	6278	298.956312091347	19
57	6300	300.762374171571	17
57	6320	302.364073454104	15
57	6337	303.873108556379	14
57	6351	304.8757879513	9
57	6381	309.3	13
57	6403	311.2	18
57	6412	311.908642263635	6
57	6426	312.909257446365	9
57	6435	313.617776109946	6
57	6450	314.717928098474	10
57	6458	315.320086015836	5
57	6477	316.820641469876	14
57	6498	318.525386965181	16
57	6519	320.233872374251	16
57	6558	326	20
57	6572	327.3	12
57	6589	328.608290640411	12
57	6596	329.115436903896	4
57	6610	330.115468543848	9
57	6623	331.221977457186	10
57	6630	331.727128944155	4
57	6653	334.8	8
57	6682	337.4	25
57	6701	338.902482079749	14
57	6713	339.910318922739	9
57	6721	340.311410426617	3
57	6729	340.916802215325	5
57	6746	342.217028105291	12
57	6797	347.5	15
57	6808	348.3	7
57	6815	348.80241892626	4
57	6833	350.208738299633	13
57	6843	351.011928056873	7
57	6867	353.014355556067	19
57	6875	353.620432562239	5
57	6907	356.221892144659	25
57	6922	357.523491364503	12
57	6936	358.525737249829	9
57	6965	363.1	11
57	6989	365.2	20
57	6993	365.402037506541	1
57	6997	365.604833046812	1
57	7014	366.909433465361	12
57	7025	367.812729096189	8
57	7032	368.121746922142	2
57	7039	368.625610304164	4
57	7063	372.8	8
57	7067	373.1	2
57	7086	374.606660197186	14
57	7105	376.10883430988	14
57	7121	377.518675022709	13
57	7136	378.624818367116	10
57	7158	380.426645641283	17
57	7167	381.130609506648	6
57	7182	382.236750407183	10
57	7205	384.143507462117	18
57	7235	386.749496647653	25
57	7269	391.6	16
57	7279	392.3	6
57	7305	394.501217859135	21
57	7329	396.506489618983	19
57	7340	397.409967464526	8
57	7344	397.616687326846	1
57	7349	397.924170492259	2
57	7375	400.8	8
57	7394	402.4	15
57	7407	403.505118181696	10
57	7421	404.513647108443	9
57	7435	405.720535388222	11
57	7453	407.12899368878	13
57	7459	407.53549785872	3
57	7485	409.737398288273	21
57	7505	411.343649359834	15
57	7517	412.148709738619	7
57	7528	413.05719722272	8
57	7569	418.2	22
57	7590	420	17
57	7610	421.809195115645	17
57	7624	422.809915430328	9
57	7637	423.913279099842	10
57	7674	427.016378504028	30
57	7682	427.622523270062	5
57	7694	428.426753118672	7
57	7805	433.9	19
57	7838	435.2	12
57	7854	435.90951408419	6
57	7890	437.314092647302	13
57	7897	437.818781695553	4
57	7911	438.821746257586	9
57	7917	439.231510890066	3
57	7948	443.6	16
57	7958	444.3	6
57	7970	445.301706061395	9
57	7983	446.203412911297	8
57	7992	446.910322091941	6
57	8003	447.814204170646	8
57	8010	448.124068397295	2
57	8019	448.833637742006	6
57	8029	449.638610901664	7
57	8102	453.8	18
57	8133	455	11
57	8158	456.103048127887	10
57	8177	457.808930862981	16
57	8196	459.311971007813	14
57	8221	461.420357648268	20
57	8254	464.121552007783	26
57	8272	465.730213994432	15
57	8289	467.03343228411	12
57	8352	471.2	12
57	8381	472.7	14
57	8416	475.801896047794	30
57	8455	479.107533645931	32
57	8496	484.1	21
57	8524	486.6	24
57	8539	487.906101168803	12
57	8556	489.207619980591	12
57	8571	490.313625670316	10
57	8585	491.516330523044	11
57	8600	492.621722078614	10
57	8610	493.429265633252	7
57	8630	495.032698540262	15
57	8660	499.4	14
57	8683	501.4	19
57	8700	502.704133430311	12
57	8723	504.614010044421	18
57	8742	506.12245978883	14
57	8759	507.624188810351	14
57	8767	508.030422276597	3
57	8785	509.631229415774	15
57	8805	512.2	2
57	8832	514.6	23
57	8861	517.108574123871	24
57	8884	519.014286734149	18
57	8906	520.816262816557	17
57	8922	522.024678061221	11
57	8934	523.026648103539	9
57	8943	523.735614298377	6
57	8992	528.9	29
57	9008	530.2	12
57	9043	533.304991338043	30
57	9059	534.50969213894	11
57	9107	540.8	28
57	9118	541.8	9
57	9133	542.904936907892	10
57	9149	544.110486308985	11
57	9161	545.111133410727	9
57	9175	546.11771489333	9
57	9189	547.31955411197	11
57	9219	551.5	15
57	9236	552.9	13
57	9254	554.301968755535	13
57	9276	556.105024823554	17
57	9289	557.212731921126	10
57	9297	557.813520894921	5
57	9336	561.118328738004	32
57	9342	561.527514531084	3
57	9357	562.636763651988	10
57	9372	563.946421408238	12
57	9390	565.348243117897	13
57	9405	566.452804972102	10
57	9415	567.256326165442	7
57	9443	571	10
57	9491	575.3	42
57	9520	577.803959508009	24
57	9551	580.311872287198	24
57	9563	581.318844889296	9
57	9589	583.526153426522	21
57	9616	585.827288606732	22
57	9641	587.930523993435	20
57	9663	590.6	6
57	9672	591.4	7
57	9691	592.90240086965	14
57	9739	597.107971723025	41
57	9747	597.712306137174	5
57	9763	598.920402877666	11
57	9770	599.423533610792	4
57	9776	599.824120138168	3
57	9799	602.5	5
57	9813	603.8	12
57	9825	604.602182072529	7
57	9833	605.211849760643	5
57	9852	606.720475450376	14
57	9869	608.024154253752	12
57	9881	609.026221229742	9
57	9890	609.732493595437	6
57	9921	612.234000208331	24
57	9935	613.441117130336	11
57	9948	614.349561111407	8
57	9958	615.156751543436	7
57	9983	617.258285199921	20
57	10010	620.9	9
57	10026	622.2	12
57	10036	623.007162320089	7
57	10062	625.212468111597	21
57	10078	626.41793569874	11
57	10091	627.523648278193	10
57	10107	628.723874031534	11
57	10124	630.024776021754	12
57	10139	631.329947860221	12
57	10160	633.034370232404	16
57	10170	633.83614875714	7
57	10319	641	50
57	10340	642.8	17
57	10351	643.702622144471	8
57	10364	644.610966939348	8
57	10375	645.517992857228	8
57	10387	646.319150763919	7
57	10396	647.021735732216	6
57	10429	651.8	18
57	10470	655.4	35
57	10498	657.805208329546	23
57	10518	659.41367055599	15
57	10547	661.918849170637	24
57	10556	662.42124493056	4
57	10594	665.830263477952	33
57	10602	666.23897702718	3
57	10607	666.540497321561	2
57	10618	667.449304072069	8
57	10641	670.7	7
57	10652	671.7	9
57	10664	672.502238905148	7
57	10684	674.105856533252	15
57	10695	675.012759404174	8
57	10705	675.818828883262	7
57	10725	677.425267926335	15
57	10750	681	10
57	10757	681.6	5
57	10775	683.007962464445	13
57	10796	684.712183827717	16
57	10809	685.815309015974	10
57	10824	686.920897142959	10
57	10839	688.021899626273	10
57	10872	693.8	18
57	10885	694.8	9
57	10902	696.104840294863	12
57	10913	697.011737643598	8
57	10940	699.312496231958	22
57	10960	700.916315525745	15
57	10976	702.123904554413	11
57	10988	703.129568042578	9
57	11005	704.432118350444	12
57	11042	709.9	19
57	11061	711.5	15
57	11077	712.702072475517	11
57	11097	714.311478018741	15
57	11109	715.312120885112	9
57	11139	717.913409533867	25
57	11179	722	20
57	11195	723.5	14
57	11218	725.403159166215	18
57	11244	727.606260458677	21
57	11257	728.512295307651	8
57	11293	733.8	18
57	11306	734.8	9
57	11324	736.208905364344	13
57	11339	737.518577467709	12
57	11355	738.725648194524	11
57	11373	740.128627608654	13
57	11385	741.135837155462	9
57	11398	742.041381316883	8
57	11413	743.344490685914	12
57	11465	747.4	14
57	11482	748.8	13
57	11492	749.600598685769	7
57	11517	751.709814221635	20
57	11533	752.911801510867	11
57	11565	755.712008396991	27
57	11581	756.918913826046	11
57	11604	758.819721307672	18
57	11614	759.626482520714	7
57	11638	761.627757889526	19
57	11670	765.4	14
57	11675	765.8	3
57	11685	766.402088462312	5
57	11705	768.011356157669	15
57	11713	768.615786681775	5
57	11726	769.720069502253	10
57	11736	770.325596484654	5
57	11745	771.032064537594	6
57	11762	772.340964130525	12
57	11777	773.643244174479	12
57	11800	776.6	6
57	11820	778.3	16
57	11834	779.509279440341	11
57	11860	781.710251391313	21
57	11875	782.815386893222	10
57	11887	783.823240674779	9
57	11903	785.027822224181	11
57	11921	786.430029574064	13
57	11935	787.638685458849	11
57	11951	788.844061229565	11
57	11978	793	10
57	11997	794.6	15
57	12024	796.901286833805	22
57	12041	798.203034439316	12
57	12070	803.1	11
57	12077	803.7	5
57	12092	804.808450766198	10
57	12109	806.113231442737	12
57	12127	807.714089321041	15
57	12153	809.92212539028	21
57	12183	813.2	12
57	12197	814.3	10
57	12223	816.506404065329	21
57	12239	817.913369044498	13
57	12258	819.416068648162	14
57	12271	820.322425915826	8
57	12284	821.426677059318	10
57	12295	822.136367959551	6
57	12324	827.1	11
57	12346	829	18
57	12353	829.500435920795	4
57	12374	831.210127998645	16
57	12401	833.51933535121	22
57	12442	837.028788529092	34
57	12464	838.836597707369	17
57	12472	839.445927898061	5
57	12500	841.850553395302	23
57	12509	842.357191996354	4
57	12526	843.857952171355	14
57	12568	847.462540825843	35
57	12598	851.2	12
57	12613	852.4	11
57	12647	855.408302953091	29
57	12662	856.512210352079	10
57	12684	858.319029420777	17
57	12695	859.222166101299	8
57	12718	861.12338797837	18
57	12731	862.033192752753	8
57	12749	863.640364771924	15
57	12781	867.4	14
57	12802	869.2	17
57	12823	870.904878559294	16
57	12843	872.512022078707	15
57	12859	873.921251260716	13
57	12881	875.721899592977	17
57	12907	877.928425416453	21
57	12925	879.32844104784	13
57	12941	880.537284471322	11
57	12963	882.33960096635	17
57	12987	884.346462824354	19
57	13008	886.047992260248	16
57	13036	891	10
57	13045	891.8	7
57	13076	894.302812689647	24
57	13090	895.510780319664	11
57	13102	896.312336750691	7
57	13114	897.313115212853	9
57	13126	898.119600161489	7
57	13135	898.825338157778	6
57	13144	899.530443670683	6
57	13156	900.332433640587	7
57	13165	901.038307382255	6
57	13170	901.341940665634	2
57	13205	905.8	18
57	13218	906.8	9
57	13226	907.40457752377	5
57	13246	909.012092590448	15
57	13267	910.717439343137	16
57	13284	912.024285655037	12
57	13294	912.825161101013	7
57	13343	916.5	5
57	13356	917	4
57	13380	917.90236619601	8
57	13419	919.60884964724	16
57	13438	921.11169623209	14
57	13457	922.615929103457	14
57	13466	923.32051626239	6
57	13483	926.2	2
57	13498	927.6	13
57	13513	928.708505140303	10
57	13530	930.014363365124	12
57	13542	931.018709838075	9
57	13551	931.727779841645	6
57	13562	932.428892770198	6
57	13607	938.8	28
57	13622	940	11
57	13634	941.004791477841	9
57	13641	941.511618269196	4
57	13673	944.116075118212	25
57	13683	944.924449215773	7
57	13703	946.532097222352	15
57	13722	948.037985311531	14
57	13729	948.545718826012	4
57	13738	949.246300440815	6
57	13747	949.9498138281	6
57	13773	952.9	9
57	13783	953.8	8
57	13795	954.60107799269	7
57	13801	955.007136091249	3
57	13817	956.212814364511	11
57	13840	958.11466114115	18
57	13851	959.021588580704	8
57	13861	959.828368343913	7
57	13873	960.636692518149	7
57	13886	961.737680865094	10
57	13937	967.1	31
57	13952	968.3	11
57	13967	969.607725233559	12
57	13981	970.613128738007	9
57	14003	972.422816318603	17
57	14029	974.629550748945	21
57	14064	979.7	17
57	14075	980.5	7
57	14095	982.10438759274	15
57	14111	983.505012284693	13
57	14126	984.608898464647	10
57	14140	985.814169793492	11
57	14157	987.118019361186	12
57	14167	987.925776236359	7
57	14185	989.33344291211	13
57	14191	989.741523284557	3
57	14217	991.950360185716	21
57	14264	996.7	27
57	14281	998.1	13
57	14295	999.309882908368	11
57	14319	1001.311805613515	19
57	14327	1001.919975041259	5
57	14363	1005.8	18
57	14381	1007.3	14
57	14409	1009.705438884284	23
57	14431	1011.505776494212	17
57	14453	1013.315120904884	17
57	14474	1015.024012668289	16
57	14493	1016.532000893703	14
57	14516	1018.432203296543	18
57	14532	1019.842114456883	13
57	14539	1020.146232154085	2
57	14559	1024.2	2
57	14573	1025.5	12
57	14598	1027.603782227134	20
57	14619	1029.306566182574	16
57	14640	1031.014787702508	16
57	14647	1031.519773692727	4
57	14682	1034.427167950259	28
57	14707	1036.528680869178	20
57	14788	1042	20
57	14793	1042.4	3
57	14801	1043.002199908581	5
57	14815	1044.00358830559	9
57	14841	1046.204197823893	21
57	14858	1047.708472751119	14
57	14872	1048.715397023403	9
57	14905	1053.8	18
57	14915	1054.5	6
57	14924	1055.20549587954	6
57	14933	1055.910950968811	6
57	14943	1056.518806988513	5
57	14962	1058.025091582238	14
57	14971	1058.732866993548	6
57	14977	1059.136030392108	3
57	15000	1061.036857740156	18
57	15008	1061.6426082138	5
57	15033	1063.744012287781	20
57	15069	1066.75318854324	29
57	15096	1069.059200486363	22
57	15136	1074	20
57	15154	1075.7	16
57	15171	1077.004116522453	12
57	15192	1078.710634144672	16
57	15215	1080.615946263931	18
57	15229	1081.822163659547	11
57	15262	1084.530071729362	26
57	15283	1086.232695380887	16
57	15306	1088.133522583076	18
57	15320	1089.341993507498	11
57	15327	1089.845472640187	4
57	15370	1094.3	23
57	15380	1095.2	8
57	15403	1097.109280461419	18
57	15420	1098.417655260799	12
57	15436	1099.822951708043	13
57	15452	1101.024486871758	11
57	15457	1101.331740305808	2
57	15471	1102.33700907289	9
57	15510	1105.845699749716	34
57	15541	1109.3	13
57	15551	1110	6
57	15587	1113.202667302484	31
57	15603	1114.402992467248	11
57	15632	1116.903096804079	24
57	15642	1117.707702662893	7
57	15659	1119.010961671121	12
57	15687	1123	10
57	15714	1125.4	23
57	15749	1128.308865832774	28
57	15756	1128.818857319242	4
57	15779	1130.726900412941	18
57	15793	1131.935066133893	11
57	15805	1132.741493646609	7
57	15826	1134.442559263565	16
57	15865	1140.1	21
57	15893	1142.6	24
57	15920	1144.908489679528	22
57	15937	1146.209866528063	12
57	15975	1149.614017857524	33
57	15983	1150.017677870238	3
57	16002	1151.719076978723	16
57	16018	1152.923267544277	11
57	16036	1154.332301607736	13
57	16061	1158.7	7
57	16074	1159.9	11
57	16080	1160.107792611061	1
57	16094	1161.308849209481	11
57	16111	1162.6177934875	12
57	16130	1164.121437653604	14
57	16140	1164.922558056151	7
57	16174	1169.9	19
57	16188	1171	10
57	16216	1173.400001899418	23
57	16233	1174.707363029559	12
57	16255	1176.508774313106	17
57	16274	1178.015091531238	14
57	16292	1179.615893676954	15
57	16301	1180.120901514312	4
57	16315	1181.32499296408	11
57	16326	1182.027999422024	6
57	16351	1184.136251045041	20
57	16366	1185.445821171898	12
57	16383	1186.753247071466	12
57	16400	1188.056299732251	12
57	16418	1189.664338531145	15
57	16436	1191.067580401105	13
57	16486	1197.1	31
57	16506	1198.8	16
57	16525	1200.304152459388	14
57	16540	1201.612013756432	12
57	16550	1202.216596940706	5
57	16573	1204.118258303461	18
57	16609	1209.8	18
57	16653	1213.7	38
57	16661	1214.101819576483	3
57	16671	1214.907131648698	7
57	16682	1215.816967796956	8
57	16708	1218.8	8
57	16726	1220.3	14
57	16737	1221.205100671243	8
57	16750	1222.113775551246	8
57	16769	1223.820896264704	16
57	16803	1226.625916023697	27
57	16855	1233.2	32
57	16869	1234.3	10
57	16874	1234.608107089395	2
57	16896	1236.409518713384	17
57	16912	1237.810748970302	13
57	16923	1238.519184051117	6
57	16934	1239.427138692236	8
57	16964	1243.5	15
57	16987	1245.5	19
57	17003	1246.703085735654	11
57	17022	1248.208161389173	14
57	17033	1249.114901166066	8
57	17051	1250.523796832551	13
57	17083	1253.324346063827	27
57	17102	1254.829812138793	14
57	17121	1256.333940958427	14
57	17137	1257.739275332474	13
57	17150	1258.649061124281	8
57	17162	1259.649535439105	9
57	17171	1260.151294107441	4
57	17195	1264.7	7
57	17205	1265.6	8
57	17242	1268.703883664773	30
57	17252	1269.513473603389	7
57	17263	1270.221265007887	6
57	17268	1270.5297080395	2
57	17277	1271.238923393704	6
57	17294	1272.542865981678	12
57	17310	1273.950670773426	13
57	17326	1275.152833134489	11
57	17345	1276.659700569264	14
57	17367	1278.467335577083	17
57	17472	1285	30
57	17513	1287.8	27
57	17530	1289.103822969149	12
57	17543	1290.005810038328	8
57	17558	1291.3146546462	12
57	17576	1292.718702008706	13
57	17647	1297.9	19
57	17679	1300.6	26
57	17703	1302.607958966284	19
57	17713	1303.408130127701	7
57	17732	1304.910474246232	14
57	17758	1307.114463990762	21
57	17775	1308.417130758632	12
57	17795	1310.018476244187	15
57	17801	1310.425675960822	3
57	17816	1311.733791519932	12
57	17832	1312.939112452366	11
57	17850	1314.3410534526	13
57	17924	1319.6	16
57	17963	1321.3	16
57	18001	1322.905655513599	15
57	18038	1325.60669114435	26
57	18048	1326.208895838236	5
57	18064	1327.612031601465	13
57	18082	1329.019416856519	13
57	18106	1331.020773681148	19
57	18130	1333.027092254065	19
57	18141	1333.936036293761	8
57	18222	1337.9	19
57	18237	1338.5	5
57	18269	1339.909667795395	13
57	18289	1340.712591127368	7
57	18322	1342.021256343148	12
57	18331	1342.724813036984	6
57	18349	1344.126358708697	13
57	18361	1345.132605528917	9
57	18381	1346.741206176934	15
57	18389	1347.346509893507	5
57	18407	1348.754341829007	13
57	18425	1350.156991879197	13
57	18441	1351.563847566155	13
57	18454	1352.472338272704	8
57	18489	1357.7	17
57	18506	1359.1	13
57	18515	1359.802641427426	6
57	18533	1361.207992612423	13
57	18552	1362.709489963794	14
57	18563	1363.610295423524	8
57	18574	1364.317190709787	6
57	18607	1369.8	18
57	18625	1371.3	14
57	18643	1372.704083707111	13
57	18661	1374.110089235058	13
57	18681	1375.917998682301	17
57	18697	1377.120440323011	11
57	18714	1378.422823046441	12
57	18727	1379.528809548944	10
57	18751	1382.6	6
57	18765	1383.9	12
57	18784	1385.404221026268	14
57	18802	1386.804305746507	13
57	18813	1387.707109498128	8
57	18830	1389.013001719019	12
57	18851	1390.720486504344	16
57	18916	1395.2	12
57	18936	1396.9	16
57	18940	1397.107154618259	1
57	18947	1397.61704343757	4
57	18952	1397.924700849881	2
57	18958	1398.128815439432	1
57	18963	1398.436851363582	2
57	19005	1404.5	25
57	19023	1406	14
57	19036	1407.10478688596	10
57	19055	1408.610691398484	14
57	19070	1409.916855275481	12
57	19087	1411.222903686113	12
57	19108	1412.932481460746	16
57	19118	1413.739651130768	7
57	19183	1417.2	12
57	19212	1418.3	10
57	19233	1419.802820001826	14
57	19245	1420.612135002288	7
57	19251	1421.013683732187	3
57	19261	1421.82079619002	7
57	19275	1422.827817936562	9
57	19305	1427.2	12
57	19312	1427.8	5
57	19326	1428.80663612948	9
57	19339	1429.909913399147	10
57	19353	1430.916086227835	9
57	19365	1431.918037074193	9
57	19378	1432.827571713965	8
57	19404	1437.1	11
57	19426	1439	18
57	19436	1439.807747814245	7
57	19460	1441.809132575243	19
57	19474	1442.812758345975	9
57	19486	1443.818401852351	9
57	19504	1445.220487037318	13
57	19516	1446.029640817023	7
57	19529	1447.136638513917	10
57	19545	1448.345249984058	11
57	19550	1448.646955012037	2
57	19577	1452.9	9
57	19603	1455.2	22
57	19627	1457.207837794001	19
57	19639	1458.008470297857	7
57	19659	1459.810253602865	17
57	19681	1462.4	4
57	19697	1463.9	14
57	19730	1466.608345299686	26
57	19749	1468.117876424017	14
57	19777	1470.523431160487	23
57	19787	1471.325415107793	7
57	19800	1472.228193018777	8
57	19812	1473.231195673782	9
57	19824	1474.036785249756	7
57	19832	1474.646674454386	5
57	19851	1476.148170580977	14
57	19865	1477.351098067959	11
57	19879	1478.354069308275	9
57	19888	1479.058665333971	6
57	19917	1483.2	12
57	19930	1484.2	9
57	19937	1484.702236547193	4
57	19951	1485.90609675429	11
57	19965	1486.906604989899	9
57	19976	1487.807397149982	8
57	19996	1489.409457923464	15
57	20020	1491.411919308878	19
57	20031	1492.120624491558	6
57	20041	1492.921824401281	7
57	20057	1494.125834120446	11
57	20100	1500.3	23
57	20124	1502.4	20
57	20149	1504.50499157285	20
57	20177	1506.913610270704	23
57	20197	1508.523321080262	15
57	20220	1510.429898653913	18
57	20241	1512.13915426034	16
57	20270	1514.641088563725	24
57	20279	1515.345918194823	6
57	20294	1516.44815497239	10
57	20304	1517.255465239732	7
57	20316	1518.058190947329	7
57	20346	1523.2	12
57	20360	1524.3	10
57	20389	1526.805711035362	24
57	20398	1527.511779066323	6
57	20408	1528.117983441204	5
57	20434	1530.322466236173	21
57	20458	1532.329606477231	19
57	20471	1533.430639518342	10
57	20562	1538.2	22
57	20607	1540.2	19
57	20640	1542.303348716951	20
57	20663	1544.207434316342	18
57	20687	1546.21652078525	19
57	20701	1547.42407003162	11
57	20725	1549.429888944249	19
57	20752	1553.2	12
57	20759	1553.8	5
57	20774	1554.903534055026	10
57	20783	1555.6041405802	6
57	20796	1556.509347781854	8
57	20818	1558.319002738642	17
57	20836	1559.920465727744	15
57	20857	1561.530946658099	15
57	20885	1565	10
57	20904	1566.6	15
57	20948	1570.404045878795	37
57	20955	1570.905249318643	4
57	20959	1571.115199090628	1
57	20981	1572.917722061194	17
57	20991	1573.717943489306	7
57	21031	1578	20
57	21045	1579.3	12
57	21074	1581.808141655507	24
57	21094	1583.412177511434	15
57	21120	1586.8	8
57	21144	1588.9	20
57	21153	1589.606069251543	6
57	21158	1589.91217175045	2
57	21178	1591.520758799616	15
57	21184	1591.930298153554	3
57	21197	1592.836043720646	8
57	21208	1593.742934557262	8
57	21233	1595.843764251572	20
57	21268	1598.753454988926	28
57	21275	1599.263255788552	4
57	21301	1602.9	9
57	21308	1603.5	5
57	21325	1604.803013767441	12
57	21335	1605.611182792057	7
57	21367	1608.214175487843	25
57	21392	1610.314402066399	20
57	21408	1611.714779151682	13
57	21448	1616	20
57	21463	1617.4	13
57	21482	1618.901683917094	14
57	21501	1620.402240770561	14
57	21527	1622.604015937395	21
57	21548	1624.307311461026	16
57	21569	1626.013263852084	16
57	21590	1627.918027416274	18
57	21612	1629.721711174647	17
57	21636	1631.725624943642	19
57	21650	1632.726284092863	9
57	21662	1633.733675917978	9
57	21676	1634.737918503856	9
57	21712	1639.8	18
57	21720	1640.3	4
57	21727	1640.803759736686	4
57	21755	1643.204680927809	23
57	21781	1645.413461726914	21
57	21808	1647.720706765517	22
57	21815	1648.030671626895	2
57	21824	1648.733706577215	6
57	21842	1650.136124148303	13
57	21856	1651.338497504602	11
57	21875	1652.846837198825	14
57	21897	1654.656462720087	17
57	21924	1659.1	11
57	21947	1661.1	19
57	21970	1663.009569412083	18
57	21976	1663.415949264475	3
57	21990	1664.419927450962	9
57	21998	1665.020661648363	5
57	22012	1666.026874027743	9
57	22022	1666.829305853894	7
57	22044	1668.636902550711	17
57	22051	1669.145024159514	4
57	22071	1670.752248677006	15
57	22156	1677.1	31
57	22181	1679.3	21
57	22189	1679.907025656267	5
57	22208	1681.412909264117	14
57	22227	1682.914165183153	14
57	22272	1688.5	25
57	22278	1689	4
57	22296	1690.402303994554	13
57	22309	1691.505088253328	10
57	22325	1692.705395975482	11
57	22358	1695.607497847558	28
57	22376	1697.009420838843	13
57	22390	1698.01000548328	9
57	22406	1699.414831716445	13
57	22416	1700.01805338577	5
57	22428	1701.023195414832	9
57	22456	1705.1	11
57	22473	1706.5	13
57	22492	1708.006524340203	14
57	22505	1709.10758688067	10
57	22582	1713.9	19
57	22601	1714.6	6
57	22621	1715.507687203348	8
57	22655	1716.817001203032	12
57	22673	1717.619498086877	7
57	22701	1718.620046384742	9
57	22717	1719.321101626658	6
57	22759	1723.5	15
57	22774	1724.7	11
57	22795	1726.406065135174	16
57	22810	1727.707311519465	12
57	22822	1728.511375924671	7
57	22833	1729.413576193639	8
57	22849	1730.620448265842	11
57	22861	1731.626273872615	9
57	22874	1732.529107818589	8
57	22901	1737.1	11
57	22911	1737.909410105173	7
57	22923	1738.717164617895	7
57	22931	1739.325774274002	5
57	22943	1740.134331334123	7
57	22958	1741.440448347999	12
57	22975	1742.74452817	12
57	22988	1743.849764003111	10
57	22995	1744.155010331887	2
57	23022	1746.461155879291	22
57	23053	1751.3	13
57	23066	1752.3	9
57	23080	1753.507937260812	11
57	23094	1754.517914086337	9
57	23126	1757.323931707892	27
57	23140	1758.330453526904	9
57	23148	1758.934577199705	5
57	23173	1761.043104385009	20
57	23181	1761.651499923308	5
57	23196	1762.753527346266	10
57	23210	1763.958802287814	11
57	23238	1767	10
57	23261	1769	19
57	23266	1769.305408022983	2
57	23292	1771.511240314922	21
57	23303	1772.213717284409	6
57	23308	1772.523483563388	2
57	23327	1774.024353305675	14
57	23333	1774.428405130385	3
57	23357	1778.8	8
57	23373	1780.1	12
57	23401	1782.509599208226	23
57	23422	1784.216881555702	16
57	23431	1784.921568856974	6
57	23465	1789.6	16
57	23483	1791.1	14
57	23498	1792.200788199366	10
57	23520	1794.008898030682	17
57	23537	1795.516156891218	14
57	23562	1797.622997853615	20
57	23587	1799.724712846256	20
57	23606	1801.229902715971	14
57	23648	1806.2	22
57	23660	1807.3	10
57	23679	1808.807685978761	14
57	23697	1810.209157084216	13
57	23710	1811.310569090539	10
57	23731	1813.01470896496	16
57	23751	1814.623619362025	15
57	23790	1820.2	22
57	23806	1821.7	14
57	23822	1822.90792277374	11
57	23839	1824.212762960776	12
57	23852	1825.318970210182	10
57	23867	1826.423015550493	10
57	23889	1828.228874182276	17
57	23920	1833.6	16
57	23935	1834.8	11
57	23955	1836.40613871512	15
57	23963	1837.009370397592	5
57	23984	1838.714828434665	16
57	23995	1839.622807269433	8
57	24010	1840.730776084311	10
57	24046	1843.934607747701	31
57	24067	1846.3	3
57	24088	1848.1	17
57	24098	1848.905972202029	7
57	24120	1850.711745977683	17
57	24132	1851.715896312344	9
57	24165	1854.417097190903	26
57	24185	1856.025122939581	15
57	24212	1861.2	12
57	24219	1861.8	5
57	24229	1862.403172151814	5
57	24243	1863.611909626524	11
57	24258	1864.713879161595	10
57	24266	1865.323494879798	5
57	24289	1867.226363078226	18
57	24317	1871.3	13
57	24338	1873.1	17
57	24353	1874.207947471919	10
57	24361	1874.808908979699	5
57	24385	1876.813343937552	19
57	24404	1878.31855111827	14
57	24417	1879.421019703013	10
57	24434	1880.722469548308	12
57	24448	1881.928567307195	11
57	24464	1883.136203687777	11
57	24504	1888.2	22
57	24516	1889.3	10
57	24542	1891.504991671785	21
57	24575	1894.206105556024	26
57	24589	1895.410924102314	11
57	24606	1896.718588929389	12
57	24625	1898.223012406014	14
57	24656	1903.3	13
57	24676	1905	16
57	24695	1906.500076159262	14
57	24714	1908.002909765699	14
57	24739	1910.105880491325	20
57	24759	1911.911436306248	17
57	24788	1914.213993970824	22
57	24817	1916.716931208432	24
57	24844	1919.021013803772	22
57	24866	1920.821728381466	17
57	24886	1922.427733220847	15
57	24927	1928.1	21
57	24932	1928.5	3
57	24943	1929.40089025455	8
57	24956	1930.304796562683	8
57	24969	1931.414601962793	10
57	24991	1933.22449926052	17
57	25015	1935.229553665013	19
57	25060	1940.8	28
57	25078	1942.3	14
57	25085	1942.807622968815	4
57	25095	1943.613994448787	7
57	25109	1944.614831890183	9
57	25121	1945.619691076905	9
57	25137	1946.82407559874	11
57	25158	1948.525547287648	16
57	25187	1953.1	11
57	25215	1955.6	24
57	25250	1958.5011152102	28
57	25271	1960.210761294392	16
57	25285	1961.416319266787	11
57	25290	1961.723203034008	2
57	25308	1963.129151671145	13
57	25341	1967.5	15
57	25349	1968	4
57	25353	1968.200717399027	1
57	25384	1970.908369900516	26
57	25422	1974.112742200898	31
57	25451	1979.1	11
57	25468	1980.5	13
57	25487	1982.00659346428	14
57	25502	1983.311448212708	12
57	25525	1985.2172140495	18
57	25537	1986.022271468433	7
57	25549	1987.024743283433	9
57	25559	1987.831557493549	7