version 2
run Join-16-20130429-12:49:36-17679
attr configname Join
attr datetime 20130429-12:49:36
attr experiment "\"Join\""
attr inifile omnetpp.ini
attr iterationvars $0=64
attr iterationvars2 "$0=64, $repetition=6"
attr measurement $0=64
attr network Network
attr processid 17679
attr repetition 6
attr replication #6
attr resultdir results
attr runnumber 16
attr seedset 16

vector 16  Network.dyn_peer[0]  lookupHopsSig:vector  ETV
16	404	22.2	2
16	409	22.6	3
16	416	23.103601499758	4
16	421	23.404718993794	2
16	428	23.913030491111	4
16	440	24.715725713945	7
16	449	25.419688812999	6
16	468	28.1	1
16	475	28.609303274587	4
16	479	28.816684669334	1
16	485	29.121469951993	2
16	489	29.325695762524	1
16	493	29.531114139549	1
16	503	30.13781610322	5
16	508	30.43956956954	2
16	512	30.645681955456	1
16	518	31.045879677119	3
16	538	34.2	2
16	544	34.7	4
16	552	35.306349732528	5
16	559	35.812547875374	4
16	566	36.113630287846	2
16	572	36.522166048386	3
16	577	36.831678055536	2
16	581	37.040843465567	1
16	600	40.1	1
16	605	40.5	3
16	609	40.708469467635	1
16	618	41.418077822401	6
16	625	41.832745857465	3
16	648	44.5	5
16	654	44.908114014121	3
16	659	45.212789962556	2
16	665	45.619233783303	3
16	673	46.020741907601	3
16	679	46.422716679461	3
16	683	46.624505684871	1
16	690	47.039264150207	3
16	710	50.4	4
16	714	50.7	2
16	722	51.303412981461	5
16	729	51.809531141262	4
16	736	52.119248807582	2
16	759	56.5	5
16	768	57.3	7
16	772	57.505350689322	1
16	777	57.806724260754	2
16	787	58.411156021297	5
16	795	59.012450012076	5
16	802	59.517139056211	4
16	808	59.923651813506	3
16	817	60.432286713241	4
16	837	64.2	2
16	842	64.6	3
16	846	64.805775256634	1
16	852	65.210803989807	3
16	857	65.514949318093	2
16	863	65.918481260681	3
16	873	66.519833120518	5
16	879	66.92153451307	3
16	889	67.726710651656	7
16	910	70.3	3
16	917	70.9	5
16	922	71.201464743157	2
16	930	71.802409116054	5
16	938	72.204356879355	3
16	942	72.412985415151	1
16	947	72.715220464244	2
16	954	73.222605185007	4
16	960	73.630931148118	3
16	969	74.132076263368	4
16	995	78.8	8
16	1001	79.3	4
16	1005	79.500531433175	1
16	1014	80.003002205534	4
16	1019	80.312670828356	2
16	1043	84.6	6
16	1046	84.8	1
16	1051	85.10341492528	2
16	1057	85.50587389431	3
16	1063	85.907051160906	3
16	1074	86.615314267482	6
16	1080	87.020759303853	3
16	1085	87.327129718863	2
16	1093	87.932808368437	5
16	1115	90.5	5
16	1118	90.7	1
16	1124	91.108652564662	3
16	1137	92.013608803788	8
16	1146	92.717973040064	6
16	1155	93.419827485397	6
16	1161	93.827367593993	3
16	1170	94.331255385242	4
16	1193	98.5	5
16	1198	98.9	3
16	1203	99.200978730502	2
16	1211	99.810856065139	5
16	1220	100.318062311391	4
16	1243	104.5	5
16	1250	105.1	5
16	1260	105.904153338097	7
16	1270	106.513666642509	5
16	1274	106.720031724297	1
16	1297	110.5	5
16	1301	110.8	2
16	1307	111.207041117707	3
16	1312	111.5152881223	2
16	1318	111.918764096234	3
16	1327	112.419222213845	4
16	1334	112.92091873636	4
16	1342	113.524482162003	5
16	1366	116.6	6
16	1372	117.1	4
16	1378	117.407525797904	2
16	1388	118.014479120903	5
16	1392	118.217869924845	1
16	1414	122.4	4
16	1422	123.1	6
16	1430	123.703011659949	5
16	1440	124.304901246474	5
16	1448	124.913095794184	5
16	1456	125.513242122881	5
16	1465	126.017425878311	4
16	1469	126.219638589599	1
16	1474	126.52564546229	2
16	1482	127.133445895758	5
16	1489	127.635152611715	4
16	1512	130.5	5
16	1517	130.9	3
16	1524	131.40209792409	4
16	1534	132.01038330305	5
16	1540	132.41867071806	3
16	1544	132.626111417217	1
16	1568	136.1	1
16	1574	136.6	4
16	1581	137.109617517741	4
16	1591	137.914430140581	7
16	1601	138.523714065235	5
16	1608	139.03189534659	4
16	1612	139.233409537735	1
16	1619	139.739007551012	4
16	1627	140.143960091644	3
16	1631	140.352282707591	1
16	1639	140.954715179684	5
16	1646	141.460827098199	4
16	1669	144.5	5
16	1673	144.8	2
16	1677	145.008271600883	1
16	1681	145.214082998134	1
16	1687	145.615372625562	3
16	1709	148.4	4
16	1713	148.7	2
16	1719	149.101892651014	3
16	1724	149.404961212235	2
16	1746	152.4	4
16	1752	152.9	4
16	1758	153.305522168979	3
16	1766	153.914406232847	5
16	1776	154.516813295131	5
16	1783	155.025425395289	4
16	1806	158.5	5
16	1810	158.8	2
16	1818	159.402906698978	5
16	1826	159.905632537936	4
16	1846	162.2	2
16	1852	162.7	4
16	1860	163.307000104018	5
16	1867	163.813861344499	4
16	1875	164.2174377275	3
16	1882	164.718835117551	4
16	1887	165.02805578	2
16	1903	168.1	1
16	1907	168.4	2
16	1916	169.101910259556	6
16	1920	169.30922574527	1
16	1942	172.4	4
16	1945	172.6	1
16	1951	173.006263297274	3
16	1956	173.31567867004	2
16	1960	173.522852114303	1
16	1966	173.92588282687	3
16	1973	174.227190211709	2
16	1979	174.630386701017	3
16	1986	175.135798691825	4
16	1994	175.74199756137	5
16	2002	176.150353901448	3
16	2006	176.352464412037	1
16	2032	180.8	8
16	2040	181.5	6
16	2049	182.005225862215	4
16	2055	182.413693872708	3
16	2062	182.919377622298	4
16	2069	183.421241278013	4
16	2075	183.830269886367	3
16	2095	186.2	2
16	2101	186.7	4
16	2105	186.903093489902	1
16	2111	187.303093534421	3
16	2115	187.505657776693	1
16	2121	187.906079221287	3
16	2130	188.41058847259	4
16	2136	188.813743930947	3
16	2143	189.323217036772	4
16	2163	192.2	2
16	2166	192.4	1
16	2175	193.103887341534	6
16	2182	193.612007532233	4
16	2191	194.11972237229	4
16	2198	194.623476794977	4
16	2203	194.923531446839	2
16	2225	198.4	4
16	2231	198.9	4
16	2236	199.208368054595	2
16	2241	199.515688583696	2
16	2251	200.025320188603	4
16	2259	200.629837292686	5
16	2266	201.139079832573	4
16	2285	204.4	4
16	2289	204.7	2
16	2294	205.00697960654	2
16	2301	205.514114353823	4
16	2313	206.32208218844	7
16	2335	210.4	4
16	2339	210.7	2
16	2347	211.308406308097	5
16	2353	211.710101380135	3
16	2361	212.117149118176	3
16	2384	216.5	5
16	2387	216.7	1
16	2397	217.503203599029	7
16	2408	218.20717971451	6
16	2416	218.810996091851	5
16	2420	219.019605446719	1
16	2429	219.721250729149	6
16	2441	220.530336926919	7
16	2449	221.139991912873	5
16	2453	221.344914970384	1
16	2464	222.047183919558	6
16	2485	226.3	3
16	2493	227	6
16	2503	227.80168388572	7
16	2512	228.305235935411	4
16	2533	232.3	3
16	2536	232.5	1
16	2543	233.000684512162	4
16	2550	233.5058348302	4
16	2559	234.006869800602	4
16	2566	234.508094432052	4
16	2573	235.009107982205	4
16	2578	235.318658229527	2
16	2585	235.728176304303	3
16	2595	236.33411132562	5
16	2602	236.842043179855	4
16	2624	240.4	4
16	2629	240.8	3
16	2633	241.003327855451	1
16	2639	241.408642733839	3
16	2646	241.909372877927	4
16	2655	242.418025387638	4
16	2663	243.018725095135	5
16	2683	246.2	2
16	2687	246.5	2
16	2693	246.907242944801	3
16	2700	247.410219809579	4
16	2707	247.913062693468	4
16	2716	248.419318276213	4
16	2722	248.822974213019	3
16	2729	249.323730129603	4
16	2735	249.727737371051	3
16	2756	252.3	3
16	2760	252.6	2
16	2764	252.801488170882	1
16	2771	253.307178632698	4
16	2776	253.616790608183	2
16	2780	253.817445023189	1
16	2787	254.125848603338	2
16	2808	258.6	6
16	2813	259	3
16	2820	259.509763908623	4
16	2825	259.810476736672	2
16	2833	260.211179027067	3
16	2842	260.92054169206	6
16	2849	261.426708981881	4
16	2856	261.93488072002	4
16	2862	262.136449244785	1
16	2869	262.642235416384	4
16	2876	263.144988257545	4
16	2898	266.4	4
16	2903	266.8	3
16	2909	267.201002430908	3
16	2916	267.701396436911	4
16	2923	268.005084715975	2
16	2932	268.714530716541	6
16	2939	269.224144885624	4
16	2962	272.5	5
16	2968	273	4
16	2974	273.402997685009	3
16	2981	273.905455196056	4
16	2992	274.612188604169	6
16	3001	275.313152833783	6
16	3007	275.722857602349	3
16	3011	275.929070151966	1
16	3019	276.337818166137	3
16	3039	280.2	2
16	3042	280.4	1
16	3049	280.902047370818	4
16	3056	281.410717894874	4
16	3062	281.812417383099	3
16	3087	284.7	7
16	3095	285.4	6
16	3101	285.80525771535	3
16	3108	286.106568621937	2
16	3114	286.516359337996	3
16	3122	287.118759174031	5
16	3129	287.619082676531	4
16	3139	288.220731055382	5
16	3147	288.824926810967	5
16	3170	292.5	5
16	3176	293	4
16	3183	293.502506482612	4
16	3189	293.908273336786	3
16	3195	294.117844893688	1
16	3200	294.427120812602	2
16	3206	294.837066440742	3
16	3211	295.137367081354	2
16	3233	298.4	4
16	3241	299.1	6
16	3251	299.90850588446	7
16	3261	300.516702701614	5
16	3270	301.219068855554	6
16	3277	301.720774410834	4
16	3287	302.327928625781	5
16	3295	302.929921576432	5
16	3302	303.433504787543	4
16	3323	306.3	3
16	3327	306.6	2
16	3334	307.104120923434	4
16	3339	307.412486878961	2
16	3343	307.613057967137	1
16	3348	307.913476541353	2
16	3366	310	0
16	3370	310.3	2
16	3378	310.904756768245	5
16	3385	311.406201237241	4
16	3396	312.021359148294	5
16	3402	312.425679095367	3
16	3410	313.026699823444	5
16	3415	313.327184655626	2
16	3435	316.2	2
16	3442	316.702835236776	4
16	3448	317.103586441646	3
16	3454	317.41002283946	2
16	3461	317.913297375362	4
16	3483	320.4	4
16	3490	321	5
16	3496	321.401712492632	3
16	3506	322.004824379966	5
16	3513	322.505901003637	4
16	3517	322.711024390385	1
16	3523	323.114089096938	3
16	3530	323.622144801232	4
16	3539	324.130197072412	4
16	3546	324.639847221841	4
16	3552	325.047598104969	3
16	3559	325.55467645162	4
16	3569	326.16255274709	5
16	3591	330.4	4
16	3599	331.1	6
16	3604	331.403723743418	2
16	3611	331.907426911538	4
16	3617	332.114050698619	1
16	3627	332.922993818545	7
16	3647	336.2	2
16	3653	336.7	4
16	3659	337.100691297112	3
16	3666	337.607432351374	4
16	3671	337.915496718046	2
16	3680	338.41918087119	4
16	3685	338.724456090682	2
16	3691	339.129131728626	3
16	3712	342.3	3
16	3716	342.6	2
16	3720	342.807424287062	1
16	3724	343.010926669437	1
16	3732	343.615068743805	5
16	3737	343.91626543535	2
16	3744	344.218826943767	2
16	3749	344.519971487599	2
16	3753	344.729477157192	1
16	3757	344.929804191616	1
16	3780	348.5	5
16	3786	349	4
16	3791	349.307199974656	2
16	3797	349.712574012242	3
16	3804	350.018279105955	2
16	3823	354.1	1
16	3826	354.3	1
16	3831	354.607928212848	2
16	3837	355.013208230267	3
16	3842	355.220461604884	1
16	3865	358.5	5
16	3868	358.7	1
16	3875	359.208159466444	4
16	3879	359.411793675555	1
16	3885	359.815866353888	3
16	3891	360.020524929118	1
16	3916	364.7	7
16	3923	365.3	5
16	3931	365.904136869525	5
16	3941	366.50785482166	5
16	3963	370.4	4
16	3967	370.7	2
16	3977	371.501382574297	7
16	3988	372.20371893404	6
16	3994	372.51173576285	2
16	3999	372.819061696772	2
16	4012	373.920309154037	10
16	4019	374.22667883888	2
16	4024	374.528771035548	2
16	4028	374.736921004939	1
16	4037	375.440571909197	6
16	4061	378.6	6
16	4068	379.2	5
16	4074	379.609804036698	3
16	4082	380.019309441742	3
16	4088	380.420833765458	3
16	4094	380.821376651165	3
16	4102	381.421783237269	5
16	4112	382.027296220478	5
16	4120	382.636463707254	5
16	4127	383.139669512667	4
16	4134	383.645476369951	4
16	4142	384.05087406326	3
16	4150	384.658011447635	5
16	4158	385.261162414119	5
16	4180	388.5	5
16	4185	388.9	3
16	4190	389.202852160164	2
16	4194	389.403523013598	1
16	4200	389.809949675802	3
16	4211	390.51784874243	6
16	4218	391.024636869558	4
16	4223	391.332207585132	2
16	4245	394.4	4
16	4251	394.9	4
16	4255	395.100343793467	1
16	4261	395.507717602035	3
16	4270	396.014123693095	4
16	4278	396.616854762798	5
16	4285	397.123275010818	4
16	4292	397.629963806429	4
16	4297	397.935038621096	2
16	4307	398.539559407044	5
16	4315	399.140195983569	5
16	4319	399.347392840813	1
16	4326	399.853809594168	4
16	4336	400.4607753486	5
16	4345	401.065383625844	5
16	4366	404.3	3
16	4372	404.8	4
16	4380	405.407760849958	5
16	4384	405.608488449589	1
16	4393	406.11830662951	4
16	4401	406.719269830713	5
16	4409	407.319863614663	5
16	4416	407.823144456713	4
16	4425	408.329258108838	4
16	4433	408.931430283715	5
16	4454	412.3	3
16	4460	412.8	4
16	4465	413.104944869244	2
16	4470	413.41155746532	2
16	4475	413.712597840312	2
16	4497	416.4	4
16	4503	416.9	4
16	4509	417.306180257138	3
16	4513	417.509850026068	1
16	4518	417.724735208156	1
16	4522	417.928570181163	1
16	4528	418.135126934839	1
16	4535	418.64426872561	4
16	4555	422.4	4
16	4561	422.9	4
16	4568	423.407358264061	4
16	4573	423.714983195019	2
16	4583	424.318092299975	5
16	4591	424.921633591265	5
16	4599	425.525614113965	5
16	4620	428.3	3
16	4625	428.607035461117	2
16	4630	428.91613144841	2
16	4637	429.420620938939	4
16	4642	429.726886161085	2
16	4649	430.031384950667	2
16	4675	434.8	8
16	4680	435.2	3
16	4687	435.707962165232	4
16	4695	436.110780542771	3
16	4699	436.31597710362	1
16	4704	436.616574788867	2
16	4727	440.5	5
16	4731	440.8	2
16	4735	441.008220011964	1
16	4739	441.213920766235	1
16	4762	444.5	5
16	4767	444.9	3
16	4774	445.405390744931	4
16	4780	445.814292192854	3
16	4790	446.322636543008	4
16	4798	446.92906294144	5
16	4821	450.5	5
16	4826	450.9	3
16	4834	451.507132450749	5
16	4839	451.815145792913	2
16	4845	452.018677506983	1
16	4868	456.5	5
16	4875	457.004199636024	4
16	4879	457.208362217244	1
16	4885	457.616661569451	3
16	4893	458.024103083345	3
16	4897	458.224138471421	1
16	4903	458.632130985036	3
16	4911	459.241977150961	5
16	4917	459.643003120831	3
16	4921	459.846398706747	1
16	4931	460.449944293353	5
16	4937	460.853461974678	3
16	4959	464.4	4
16	4964	464.8	3
16	4970	465.205313885349	3
16	4977	465.713016751992	4
16	4985	466.121143458959	3
16	4991	466.524687908127	3
16	4998	467.033817469752	4
16	5016	470.3	3
16	5027	471.3	9
16	5032	471.608659424132	2
16	5040	472.011446236425	3
16	5045	472.318828506695	2
16	5050	472.626953911033	2
16	5055	472.932343682839	2
16	5065	473.643892480224	6
16	5076	474.345060213294	6
16	5085	475.047445802739	6
16	5092	475.554640540021	4
16	5112	478.2	2
16	5116	478.5	2
16	5121	478.800429720806	2
16	5126	479.101341254049	2
16	5131	479.403910489863	2
16	5137	479.813871355204	3
16	5148	480.514080763136	6
16	5169	484.3	3
16	5175	484.8	4
16	5179	485.001480982082	1
16	5186	485.503147856893	4
16	5200	486.410522309682	8
16	5223	490.5	5
16	5227	490.8	2
16	5236	491.508172236527	6
16	5245	492.012321662821	4
16	5249	492.21873832574	1
16	5256	492.725166421943	4
16	5261	493.032095469816	2
16	5281	496.2	2
16	5285	496.5	2
16	5292	497.008431629939	4
16	5300	497.60940195715	5
16	5305	497.911329917313	2
16	5324	500.1	1
16	5329	500.5	3
16	5336	501.001532677621	4
16	5344	501.610315416878	5
16	5368	504.6	6
16	5376	505.3	6
16	5382	505.703297791951	3
16	5391	506.210972580487	4
16	5397	506.62049465213	3
16	5406	507.32354571084	6
16	5413	507.826331600099	4
16	5422	508.328025055675	4
16	5430	508.937084553596	5
16	5438	509.538848424957	5
16	5449	510.239383163936	6
16	5456	510.743620454652	4
16	5478	514.4	4
16	5483	514.8	3
16	5489	515.206412630381	3
16	5494	515.510422145928	2
16	5508	516.513729134626	9
16	5513	516.820255136031	2
16	5519	517.228149269572	3
16	5524	517.531066244244	2
16	5530	517.94008393095	3
16	5537	518.242072697148	2
16	5556	522.1	1
16	5562	522.6	4
16	5566	522.804011887314	1
16	5571	523.110895388498	2
16	5580	523.819737306946	6
16	5591	524.524739072046	6
16	5597	524.926973630802	3
16	5607	525.731322141564	7
16	5616	526.234244373351	4
16	5625	526.94334870633	6
16	5645	530.2	2
16	5654	531	7
16	5660	531.409816542353	3
16	5666	531.81872242346	3
16	5675	532.319634641397	4
16	5681	532.721214205836	3
16	5686	533.026593653947	2
16	5707	536.3	3
16	5713	536.8	4
16	5718	537.103261985564	2
16	5724	537.504526335922	3
16	5738	538.513451812266	9
16	5760	542.4	4
16	5766	542.9	4
16	5772	543.305081558255	3
16	5780	543.816479369475	4
16	5787	544.117606024836	2
16	5791	544.326138018426	1
16	5800	545.029398483203	6
16	5819	548.1	1
16	5825	548.6	4
16	5834	549.306978270879	6
16	5841	549.816272645489	4
16	5850	550.321049078846	4
16	5870	554.2	2
16	5874	554.5	2
16	5880	554.909492205583	3
16	5884	555.11437816378	1
16	5888	555.322013427501	1
16	5894	555.731025669653	3
16	5903	556.236978420341	4
16	5908	556.539831751972	2
16	5927	560.1	1
16	5930	560.3	1
16	5940	561.1070728305	7
16	5947	561.611862101044	4
16	5969	564.4	4
16	5972	564.6	1
16	5976	564.800198162319	1
16	5983	565.306090930288	4
16	5990	565.811934614551	4
16	5999	566.312975233992	4
16	6006	566.815743664687	4
16	6014	567.422952766434	5
16	6020	567.826488717034	3
16	6029	568.330406742755	4
16	6049	572.3	3
16	6052	572.5	1
16	6059	573.001101733103	4
16	6066	573.505466346933	4
16	6072	573.905767945287	3
16	6082	574.510656149795	5
16	6087	574.815742330551	2
16	6107	578.2	2
16	6110	578.4	1
16	6117	578.904012875123	4
16	6124	579.407973402029	4
16	6143	582.1	1
16	6148	582.403661243629	2
16	6152	582.613031078835	1
16	6157	582.920621451143	2
16	6163	583.32409422028	3
16	6167	583.525391806672	1
16	6176	584.026245296453	4
16	6183	584.534431582279	4
16	6204	588.3	3
16	6210	588.8	4
16	6216	589.200033784077	3
16	6223	589.7046265001	4
16	6232	590.214102697298	4
16	6252	594.2	2
16	6256	594.5	2
16	6263	595.001417760788	4
16	6270	595.506799960552	4
16	6276	595.815233901914	2
16	6285	596.315620641724	4
16	6291	596.723300977399	3
16	6312	600.3	3
16	6317	600.7	3
16	6323	601.105523454539	3
16	6329	601.505551372867	3
16	6335	601.906708074377	3
16	6342	602.207898473227	2
16	6348	602.608121458058	3
16	6355	603.116065642602	4
16	6361	603.518154797638	3
16	6382	606.5	5
16	6386	606.8	2
16	6394	607.400936608477	5
16	6401	607.904170714711	4
16	6411	608.507346704384	5
16	6419	609.115740704627	5
16	6426	609.623833381847	4
16	6435	610.129115727677	4
16	6440	610.432041066235	2
16	6447	610.934910126367	4
16	6467	614.2	2
16	6474	614.8	5
16	6480	615.205949992556	3
16	6489	615.914801346126	6
16	6496	616.220943116116	2
16	6502	616.629037088089	3
16	6508	617.034225231651	3
16	6512	617.238386133373	1
16	6519	617.743256742683	4
16	6528	618.250968438886	4
16	6536	618.754313969675	4
16	6555	622.2	2
16	6560	622.6	3
16	6570	623.404859749274	7
16	6576	623.806213097301	3
16	6584	624.212631285894	3
16	6593	624.917642539027	6
16	6599	625.324578049795	3
16	6604	625.630184454715	2
16	6612	626.037421658895	3
16	6618	626.43798859025	3
16	6628	627.247574259388	7
16	6648	630.2	2
16	6652	630.5	2
16	6657	630.806819277552	2
16	6661	631.010545343595	1
16	6667	631.419282239201	3
16	6682	632.527381606922	10
16	6703	636.3	3
16	6709	636.8	4
16	6713	637.001105517109	1
16	6717	637.205924933105	1
16	6724	637.715391632208	4
16	6733	638.220615332274	4
16	6740	638.730510679076	4
16	6747	639.240476496291	4
16	6753	639.647800717197	3
16	6778	642.7	7
16	6784	643.2	4
16	6796	644.006444737606	7
16	6803	644.516307213064	4
16	6810	645.018264096595	4
16	6832	648.4	4
16	6836	648.7	2
16	6841	649.009106347116	2
16	6847	649.412710099897	3
16	6857	650.016065394514	5
16	6862	650.32299623268	2
16	6866	650.528060547931	1
16	6888	654.4	4
16	6892	654.7	2
16	6898	655.101169054114	3
16	6904	655.507137519327	3
16	6909	655.816386041376	2
16	6916	656.116634335424	2
16	6921	656.417421642338	2
16	6928	656.918233504938	4
16	6934	657.32621789044	3
16	6940	657.731227508049	3
16	6950	658.331731174771	5
16	6972	662.4	4
16	6975	662.6	1
16	6981	662.910078926681	2
16	6989	663.51181732588	5
16	7000	664.214294661313	6
16	7008	664.819504078551	5
16	7016	665.42520135847	5
16	7036	668.2	2
16	7040	668.5	2
16	7047	669.005203936465	4
16	7053	669.410939222776	3
16	7057	669.612419311647	1
16	7079	672.4	4
16	7085	672.9	4
16	7091	673.300502244811	3
16	7096	673.602739332781	2
16	7104	674.008741976371	3
16	7112	674.61148143879	5
16	7117	674.914978297474	2
16	7123	675.319935453822	3
16	7144	678.3	3
16	7148	678.6	2
16	7153	678.907420859334	2
16	7158	679.212079940749	2
16	7167	679.91786709322	6
16	7173	680.125961552223	1
16	7178	680.433469107297	2
16	7183	680.738037147397	2
16	7188	681.040449534459	2
16	7193	681.349466092307	2
16	7199	681.755768367249	3
16	7216	684.1	1
16	7220	684.4	2
16	7227	684.902154592925	4
16	7233	685.306623904746	3
16	7239	685.711362468066	3
16	7251	686.52069780479	7
16	7259	687.122461145867	5
16	7265	687.527273815956	3
16	7288	690.5	5
16	7293	690.9	3
16	7299	691.303079229486	3
16	7304	691.604434182101	2
16	7313	692.105332693918	4
16	7320	692.610132881826	4
16	7330	693.417350592156	7
16	7336	693.82450805615	3
16	7345	694.334482261888	4
16	7352	694.843451768642	4
16	7360	695.444906877996	5
16	7365	695.74592695817	2
16	7386	698.3	3
16	7390	698.6	2
16	7400	699.409489912344	7
16	7410	700.014986129691	5
16	7421	700.916388840949	8
16	7426	701.217670109871	2
16	7439	702.119724427406	8
16	7444	702.428833166847	2
16	7451	702.931376983329	4
16	7458	703.432566831266	4
16	7468	704.036065958128	5
16	7472	704.242750165885	1
16	7495	708.5	5
16	7500	708.9	3
16	7505	709.208146944514	2
16	7513	709.817213994793	5
16	7520	710.124844140992	2
16	7525	710.431466770816	2
16	7530	710.73442574943	2
16	7537	711.242124387561	4
16	7556	714.1	1
16	7563	714.7	5
16	7571	715.300185276055	5
16	7579	715.903063769521	5
16	7589	716.506156377909	5
16	7594	716.815774539145	2
16	7602	717.419262865576	5
16	7613	718.120118792081	6
16	7618	718.423533447657	2
16	7626	719.027119633366	5
16	7630	719.233667856249	1
16	7654	722.6	6
16	7659	723	3
16	7666	723.50302466419	4
16	7675	724.003381963462	4
16	7683	724.514422113588	4
16	7690	725.023985498347	4
16	7696	725.424758225802	3
16	7714	728.3	3
16	7719	728.7	3
16	7729	729.500122495791	7
16	7740	730.20429346077	6
16	7745	730.509441001995	2
16	7749	730.718240302421	1
16	7756	731.227779119381	4
16	7776	734.2	2
16	7782	734.7	4
16	7789	735.204611307089	4
16	7796	735.706086090269	4
16	7800	735.908011209563	1
16	7808	736.31031872646	3
16	7816	736.91723423271	5
16	7820	737.125883771863	1
16	7827	737.626895037877	4
16	7832	737.934047205903	2
16	7839	738.235807771492	2
16	7846	738.737275062541	4
16	7867	742.4	4
16	7875	743.1	6
16	7881	743.501239839131	3
16	7891	744.1039928106	5
16	7897	744.509722365573	3
16	7901	744.712164315284	1
16	7908	745.221432456458	4
16	7914	745.621458295374	3
16	7933	748.1	1
16	7940	748.7	5
16	7945	749.003747180439	2
16	7950	749.311070639714	2
16	7955	749.618230374995	2
16	7963	750.020919013658	3
16	7968	750.323938175375	2
16	7973	750.631287352436	2
16	7982	751.340135302664	6
16	8008	754.8	8
16	8011	755	1
16	8016	755.30411461173	2
16	8024	755.906946903603	5
16	8033	756.407036086568	4
16	8053	760.2	2
16	8057	760.5	2
16	8064	761.003582186477	4
16	8073	761.704313898327	6
16	8081	762.105446284763	3
16	8089	762.70712535256	5
16	8094	763.01283712692	2
16	8104	763.818141103029	7
16	8125	766.3	3
16	8129	766.6	2
16	8135	767.00338585623	3
16	8139	767.211338310019	1
16	8143	767.41879613376	1
16	8167	770.6	6
16	8175	771.3	6
16	8183	771.906326597777	5
16	8190	772.109246187644	1
16	8197	772.612897939629	4
16	8206	773.320540563706	6
16	8228	776.4	4
16	8234	776.9	4
16	8243	777.603119682294	6
16	8254	778.306526641707	6
16	8259	778.611581865591	2
16	8264	778.913143331182	2
16	8270	779.318665024672	3
16	8281	780.022406631788	6
16	8301	784.2	2
16	8305	784.5	2
16	8310	784.804109342813	2
16	8317	785.307482457743	4
16	8324	785.816695354136	4
16	8332	786.225583234086	3
16	8338	786.633162061165	3
16	8342	786.841268906828	1
16	8347	787.150048905508	2
16	8351	787.359081730567	1
16	8356	787.6611368615	2
16	8365	788.170118386345	4
16	8369	788.379192424886	1
16	8392	792.5	5
16	8397	792.9	3
16	8401	793.108819127841	1
16	8408	793.615073564373	4
16	8418	794.222149363867	5
16	8443	798.7	7
16	8449	799.2	4
16	8456	799.704719366549	4
16	8466	800.310565387028	5
16	8477	801.217181742171	8
16	8483	801.624609937228	3
16	8492	802.125932163465	4
16	8499	802.626034490591	4
16	8506	803.131979494401	4
16	8513	803.543581659431	3
16	8531	806	0
16	8534	806.2	1
16	8539	806.502857357542	2
16	8547	807.103262596564	5
16	8554	807.60366565628	4
16	8559	807.907767336233	2
16	8568	808.417336882324	4
16	8573	808.720736409771	2
16	8580	809.221968675058	4
16	8605	812.7	7
16	8612	813.3	5
16	8618	813.700337545352	3
16	8627	814.201111138723	4
16	8636	814.908335117149	6
16	8645	815.616307469779	6
16	8656	816.324649341968	6
16	8666	817.12822730059	7
16	8670	817.334361933029	1
16	8692	820.4	4
16	8698	820.9	4
16	8704	821.301276729197	3
16	8711	821.802334278774	4
16	8720	822.303371638398	4
16	8726	822.708767999786	3
16	8736	823.515123903726	7
16	8742	823.918911056849	3
16	8751	824.424410317269	4
16	8757	824.825795146731	3
16	8764	825.327569694862	4
16	8769	825.635823063604	2
16	8778	826.137029340446	4
16	8782	826.342846436162	1
16	8803	830.3	3
16	8809	830.704173792756	3
16	8817	831.308377187612	5
16	8821	831.513398758558	1
16	8825	831.723321847921	1
16	8833	832.128105642987	3
16	8839	832.534404899268	3
16	8856	836.2	2
16	8861	836.6	3
16	8866	836.90867811226	2
16	8872	837.316778820985	3
16	8892	840.2	2
16	8897	840.6	3
16	8904	841.100768719499	4
16	8911	841.606466632491	4
16	8919	842.008879533934	3
16	8926	842.517774198879	4
16	8930	842.726036826744	1
16	8934	842.933138944932	1
16	8941	843.439575723893	4
16	8946	843.742517012724	2
16	8954	844.149830073675	3
16	8976	848.5	5
16	8980	848.8	2
16	8986	849.204965728407	3
16	8992	849.606236939751	3
16	9000	850.015256515629	3
16	9004	850.216595784231	1
16	9010	850.626198886666	3
16	9027	854.2	2
16	9033	854.7	4
16	9038	855.007138963241	2
16	9043	855.313491120035	2
16	9049	855.715128975719	3
16	9054	855.920385887264	1
16	9060	856.128821199133	1
16	9066	856.537295230349	3
16	9071	856.750571265584	1
16	9094	860.5	5
16	9097	860.7	1
16	9104	861.200969287124	4
16	9111	861.706392628973	4
16	9116	861.91801928919	1
16	9122	862.12427685769	1
16	9127	862.427448804217	2
16	9134	862.930485033841	4
16	9157	866.5	5
16	9162	866.9	3
16	9168	867.301959906436	3
16	9172	867.506058621829	1
16	9182	868.015426885851	4
16	9188	868.328316291227	2
16	9192	868.532301961245	1
16	9212	872.2	2
16	9217	872.6	3
16	9221	872.808715405939	1
16	9228	873.314080942545	4
16	9239	874.024016168454	6
16	9260	878.3	3
16	9265	878.7	3
16	9274	879.400242245667	6
16	9279	879.708550280129	2
16	9286	880.011959940478	2
16	9294	880.619970820342	5
16	9299	880.921472959414	2
16	9304	881.225982822205	2
16	9308	881.433270772089	1
16	9313	881.735796258201	2
16	9320	882.041745135195	2
16	9327	882.550757347333	4
16	9346	886.1	1
16	9351	886.5	3
16	9359	887.107460189934	5
16	9369	887.908430126607	7
16	9380	888.609948995029	6
16	9384	888.815690508412	1
16	9392	889.42374689927	5
16	9398	889.826092060952	3
16	9409	890.535456987098	6
16	9413	890.735831493802	1
16	9432	894.3	3
16	9439	894.9	5
16	9446	895.400004093113	4
16	9450	895.604035611726	1
16	9474	898.6	6
16	9483	899.4	7
16	9488	899.708146053503	2
16	9492	899.911271596308	1
16	9501	900.420162588019	4
16	9505	900.62106368962	1
16	9509	900.824434890295	1
16	9534	904.7	7
16	9540	905.2	4
16	9546	905.600904471401	3
16	9551	905.909156747373	2
16	9561	906.509580924395	5
16	9566	906.817136987497	2
16	9576	907.620870400008	7
16	9582	907.931815441017	2
16	9591	908.440322301158	4
16	9598	908.942456487846	4
16	9604	909.348245032646	3
16	9610	909.753136125781	3
16	9614	909.954436227438	1
16	9620	910.155091375758	1
16	9641	914.3	3
16	9646	914.7	3
16	9654	915.304398271909	5
16	9661	915.804844348611	4
16	9669	916.208503753567	3
16	9676	916.710014427968	4
16	9681	917.017687241747	2
16	9686	917.324106348345	2
16	9694	917.830278840408	4
16	9700	918.038229581076	1
16	9725	922.7	7
16	9729	923	2
16	9736	923.507421365261	4
16	9746	924.113638252475	5
16	9751	924.41851142786	2
16	9757	924.820467082127	3
16	9763	925.223891127672	3
16	9780	928.2	2
16	9787	928.8	5
16	9792	929.101428394941	2
16	9800	929.709876764043	5
16	9809	930.219417999897	4
16	9817	930.824877618095	5
16	9821	931.02602581487	1
16	9828	931.532870229773	4
16	9833	931.838155616083	2
16	9852	934.1	1
16	9855	934.3	1
16	9860	934.607217093366	2
16	9865	934.915244737639	2
16	9872	935.425098270458	4
16	9878	935.825510694559	3
16	9885	936.125594415962	2
16	9908	940.5	5
16	9913	940.9	3
16	9919	941.308222613728	3
16	9928	941.912824484956	5
16	9935	942.216261421619	2
16	9939	942.42277175174	1
16	9943	942.630193416573	1
16	9949	943.033954257742	3
16	9955	943.43878134226	3
16	9977	946.4	4
16	9982	946.8	3
16	9987	947.108054573806	2
16	9993	947.51187996027	3
16	10003	948.119971946079	5
16	10009	948.529169119854	3
16	10014	948.838138447132	2
16	10020	949.238348041698	3
16	10025	949.540782556242	2
16	10032	949.94616701283	3
16	10055	952.5	5
16	10059	952.8	2
16	10064	953.109750709233	2
16	10071	953.613431317165	4
16	10079	954.021520111452	3
16	10084	954.33136457273	2
16	10104	958.2	2
16	10108	958.5	2
16	10114	958.901006278698	3
16	10120	959.310847847868	3
16	10125	959.618372732357	2
16	10130	959.925084040214	2
16	10138	960.330386326743	3
16	10142	960.535811946505	1
16	10147	960.844489681384	2
16	10152	961.146154442693	2
16	10175	964.5	5
16	10183	965.2	6
16	10190	965.705052798141	4
16	10198	966.109962473227	3
16	10205	966.615595845591	4
16	10212	967.11953902529	4
16	10225	968.025126600471	8
16	10233	968.626417068234	5
16	10254	972.3	3
16	10258	972.6	2
16	10262	972.800522270165	1
16	10268	973.210325285647	3
16	10276	973.818776257356	5
16	10283	974.11940659738	2
16	10287	974.32787121817	1
16	10292	974.630447154967	2
16	10302	975.435541881914	7
16	10326	978.6	6
16	10331	979	3
16	10337	979.409894892086	3
16	10343	979.815131814041	3
16	10353	980.423790337402	5
16	10375	984.4	4
16	10378	984.6	1
16	10384	985.006571482256	3
16	10392	985.616468811073	5
16	10404	986.327344396496	6
16	10427	990.5	5
16	10433	991	4
16	10440	991.504040894226	4
16	10445	991.805849989123	2
16	10457	992.614599507789	7
16	10463	993.023989630921	3
16	10468	993.333250696467	2
16	10489	996.3	3
16	10497	997	6
16	10504	997.212403895976	1
16	10509	997.522037279887	2
16	10531	1000.4	4
16	10535	1000.7	2
16	10543	1001.305630576163	5
16	10548	1001.609066005211	2
16	10552	1001.81598182707	1
16	10563	1002.516494204289	6
16	10572	1003.218904366049	6
16	10578	1003.624845270321	3
16	10598	1006.2	2
16	10607	1007	7
16	10611	1007.203311987745	1
16	10616	1007.505926723908	2
16	10622	1007.9145310585	3
16	10632	1008.51743551319	5
16	10657	1012.7	7
16	10661	1013	2
16	10667	1013.401180281892	3
16	10674	1013.910636462978	4
16	10682	1014.317620283974	3
16	10688	1014.727594356964	3
16	10708	1018.2	2
16	10711	1018.4	1
16	10718	1018.90804116358	4
16	10725	1019.414981685529	4
16	10731	1019.817672708289	3
16	10740	1020.319550695331	4
16	10747	1020.827805100039	4
16	10752	1021.132612668266	2
16	10762	1021.933826176612	7
16	10771	1022.434410538421	4
16	10778	1022.93711077015	4
16	10786	1023.545879079886	5
16	10809	1026.5	5
16	10814	1026.9	3
16	10821	1027.405989600988	4
16	10828	1027.907759199042	4
16	10836	1028.311471104963	3
16	10842	1028.717205849256	3