file 194335 1367232556                                          
version 2
run Join-2-20130429-12:49:14-17679
attr configname Join
attr datetime 20130429-12:49:14
attr experiment "\"Join\""
attr inifile omnetpp.ini
attr iterationvars $0=32
attr iterationvars2 "$0=32, $repetition=2"
attr measurement $0=32
attr network Network
attr processid 17679
attr repetition 2
attr replication #2
attr resultdir results
attr runnumber 2
attr seedset 2

vector 2  Network.dyn_peer[0]  lookupHopsSig:vector  ETV
2	434 193901 289 58391 20.3195252362 5618.634294021297 7817 0 7 18647 55545
