file 238652 1367232629                                          
version 2
run Join-41-20130429-12:50:26-17679
attr configname Join
attr datetime 20130429-12:50:26
attr experiment "\"Join\""
attr inifile omnetpp.ini
attr iterationvars $0=512
attr iterationvars2 "$0=512, $repetition=1"
attr measurement $0=512
attr network Network
attr processid 17679
attr repetition 1
attr replication #1
attr resultdir results
attr runnumber 41
attr seedset 41

vector 41  Network.dyn_peer[0]  lookupHopsSig:vector  ETV
41	441 238211 1706 139162 24 12591.130757448824 8753 0 41 87264 1116362
