version 2
run Join-50-20130429-12:50:50-17679
attr configname Join
attr datetime 20130429-12:50:50
attr experiment "\"Join\""
attr inifile omnetpp.ini
attr iterationvars $0=1024
attr iterationvars2 "$0=1024, $repetition=0"
attr measurement $0=1024
attr network Network
attr processid 17679
attr repetition 0
attr replication #0
attr resultdir results
attr runnumber 50
attr seedset 50

vector 50  Network.dyn_peer[0]  lookupHopsSig:vector  ETV
50	3101	20	20
50	3110	20.8	7
50	3135	22.906133989803	20
50	3147	23.909063599521	9
50	3171	25.917417809759	19
50	3180	26.420888836945	4
50	3194	27.625286492419	11
50	3216	29.430027126127	17
50	3222	29.833283225146	3
50	3235	30.739798921148	8
50	3247	31.741113289691	9
50	3258	32.445354109088	6
50	3288	35.054635980651	25
50	3324	39.8	18
50	3331	40.2	3
50	3346	41.500097280987	12
50	3368	43.301831843344	17
50	3387	44.804516145017	14
50	3394	45.313325608834	4
50	3425	49.3	13
50	3448	51.3	19
50	3463	52.402770403823	10
50	3475	53.408962596155	9
50	3490	54.510319299698	10
50	3503	55.613769844505	10
50	3522	57.119338145472	14
50	3529	57.624750090625	4
50	3561	60.225335876498	25
50	3606	66.5	25
50	3625	68.1	15
50	3635	68.909438773279	7
50	3646	69.812131049388	8
50	3665	71.316094128405	14
50	3678	72.219646554923	8
50	3691	73.32634688718	10
50	3703	74.128214289652	7
50	3740	77.431226469668	32
50	3759	78.936167630128	14
50	3770	79.83883694293	8
50	3794	81.848725888261	19
50	3813	83.356071126949	14
50	3829	84.558014460714	11
50	3865	89.9	19
50	3886	91.7	17
50	3902	92.909353051059	11
50	3920	94.311351539591	13
50	3942	96.115950407698	17
50	3958	97.518002370216	13
50	3995	100.625908782498	30
50	4032	106	20
50	4050	107.7	16
50	4065	108.806065654386	10
50	4072	109.309555225923	4
50	4083	110.018926763992	6
50	4102	111.725145037459	16
50	4109	112.032934809537	2
50	4151	118.5	25
50	4171	120.2	16
50	4186	121.505797367945	12
50	4198	122.310234440191	7
50	4215	123.816444449721	14
50	4235	125.421374203637	15
50	4252	126.721581285316	12
50	4286	129.722819172827	29
50	4307	131.427025767544	16
50	4319	132.231280048499	7
50	4334	133.53138963232	12
50	4352	134.941318641141	13
50	4358	135.349588017008	3
50	4392	139.6	16
50	4404	140.5	8
50	4424	142.109120540437	15
50	4437	143.210934476887	10
50	4451	144.220019582169	9
50	4470	145.926142741552	16
50	4484	146.933655857316	9
50	4495	147.841058254086	8
50	4514	149.350479084723	14
50	4547	153.5	15
50	4562	154.7	11
50	4576	155.902181959114	11
50	4599	157.810301015934	18
50	4616	159.119646990402	12
50	4633	160.428860353073	12
50	4647	161.63009407113	11
50	4694	167	30
50	4711	168.4	13
50	4728	169.901597140005	14
50	4740	170.709433208803	7
50	4754	171.91796055208	11
50	4776	173.726053569682	17
50	4797	175.427654599067	16
50	4826	177.931875301382	24
50	4848	179.741484205645	17
50	4869	181.442563273225	16
50	4884	182.551758511707	10
50	4893	183.26070702912	6
50	4947	189.4	34
50	4986	192.8	33
50	5007	194.50031682061	16
50	5029	196.309919856604	17
50	5050	198.019144649739	16
50	5071	199.921579013891	18
50	5078	200.228947325526	2
50	5110	203.034616031439	27
50	5142	205.838255865785	27
50	5159	207.143240723928	12
50	5169	207.946559677532	7
50	5192	209.852376825933	18
50	5238	214.6	26
50	5247	215.4	7
50	5259	216.209214943994	7
50	5278	217.910890128828	16
50	5295	219.217188386592	12
50	5307	220.023638951343	7
50	5316	220.732504708098	6
50	5379	226.2	22
50	5396	227.8	15
50	5419	229.705977015546	18
50	5439	231.312378601501	15
50	5458	232.8189724141	14
50	5467	233.520274712318	6
50	5480	234.42252831565	8
50	5491	235.331632253339	8
50	5506	236.432582150655	10
50	5581	241.8	18
50	5602	242.7	8
50	5619	243.702652330622	9
50	5634	244.811546350084	10
50	5653	246.312486851489	14
50	5668	247.616134114725	12
50	5681	248.523902817907	8
50	5723	254.5	25
50	5728	254.9	3
50	5747	256.407886346701	14
50	5763	257.812732037707	13
50	5783	259.417262800855	15
50	5802	260.925489291038	14
50	5818	262.125909730011	11
50	5947	270.8	48
50	5962	272	11
50	5979	273.5003527889	14
50	5995	274.708309521807	11
50	6013	276.117727948347	13
50	6032	277.826671457925	16
50	6043	278.5365315026	6
50	6057	279.743283032889	11
50	6068	280.450642224601	6
50	6088	282.056961445635	15
50	6102	283.258446074108	11
50	6106	283.46590881872	1
50	6123	284.767043963058	12
50	6144	288.5	5
50	6149	288.9	3
50	6169	290.504662608408	15
50	6185	291.908488543088	13
50	6203	293.317654472159	13
50	6220	294.621584112441	12
50	6241	296.327273176158	16
50	6272	299.031798325229	26
50	6281	299.741692857953	6
50	6298	301.049952719594	12
50	6315	302.354684121106	12
50	6325	303.162698171467	7
50	6374	309.1	31
50	6408	312	28
50	6417	312.701954540272	6
50	6427	313.504210214523	7
50	6436	314.010008960267	4
50	6470	317.014880940821	29
50	6487	318.315449293302	12
50	6498	319.224270995244	8
50	6514	320.427388711006	11
50	6531	321.936477135361	14
50	6545	322.944035786077	9
50	6554	323.653903223794	6
50	6586	327.6	16
50	6603	329	13
50	6627	331.001435751284	19
50	6642	332.107537852944	10
50	6653	333.010964512905	8
50	6667	334.016148412177	9
50	6674	334.518775650344	4
50	6684	335.327576300655	7
50	6691	335.831984149075	4
50	6703	336.640674261168	7
50	6727	338.642054417693	19
50	6742	339.951149413768	12
50	6752	340.555249004239	5
50	6763	341.461297151384	8
50	6808	346.6	26
50	6821	347.8	11
50	6853	350.400398165876	25
50	6867	351.607884275102	11
50	6885	353.008660545427	13
50	6939	356.8	8
50	6955	357.5	6
50	6974	358.205950942048	6
50	7030	360.615601587462	23
50	7052	361.621098779459	9
50	7070	362.32748788666	6
50	7099	364.827785243457	24
50	7122	368.5	5
50	7144	370.4	18
50	7158	371.604789736103	11
50	7174	372.813480487309	11
50	7199	374.922698668794	20
50	7215	376.131627472399	11
50	7239	378.13604946705	19
50	7247	378.736174499189	5
50	7267	380.340683259287	15
50	7277	381.141555468049	7
50	7334	384.8	8
50	7397	387.5	26
50	7425	389.003672040253	14
50	7445	390.60377326439	15
50	7466	392.313650726239	16
50	7481	393.622465471102	12
50	7516	396.526720358003	28
50	7524	397.132672775774	5
50	7532	397.742520217953	5
50	7558	399.857259750921	20
50	7582	402.6	6
50	7604	404.5	18
50	7614	405.307623923709	7
50	7637	407.209694677595	18
50	7656	408.713576742742	14
50	7663	409.216686027316	4
50	7677	410.220006222031	9
50	7699	412.024644142487	17
50	7711	413.034190588504	9
50	7727	414.236044357869	11
50	7751	418.6	6
50	7762	419.6	9
50	7775	420.503510483461	8
50	7786	421.412749550789	8
50	7805	422.921748043933	14
50	7855	429	30
50	7868	430	9
50	7892	432.006439517156	19
50	7921	434.516174601576	24
50	7928	435.019028182587	4
50	7939	435.923168793009	8
50	7957	437.326059439177	13
50	7969	438.13341859396	7
50	7985	439.534953895266	13
50	8005	441.139087008544	15
50	8035	445.4	14
50	8059	447.5	20
50	8069	448.109737262798	5
50	8079	448.91966255737	7
50	8098	450.426694383835	14
50	8109	451.328371989307	8
50	8129	452.929634728451	15
50	8138	453.6329174452	6
50	8191	457.2	12
50	8211	458.9	16
50	8237	461.103134773131	21
50	8242	461.405582165168	2
50	8254	462.211150434568	7
50	8271	463.714460212035	14
50	8293	465.520187276684	17
50	8321	467.928543651633	23
50	8329	468.337932789924	3
50	8340	469.242296978046	8
50	8354	470.242834799084	9
50	8410	475.1	11
50	8423	476.1	9
50	8448	478.207131734548	20
50	8463	479.516418321716	12
50	8478	480.621473223964	10
50	8503	482.729534874713	20
50	8534	485.432557491432	26
50	8556	487.233790650705	17
50	8574	488.634697230066	13
50	8586	489.639778493311	9
50	8597	490.340345826343	6
50	8609	491.343293860297	9
50	8623	492.344464870054	9
50	8655	497.5	15
50	8669	498.6	10
50	8678	499.303319593726	6
50	8705	501.609642979227	22
50	8716	502.319202560073	6
50	8723	502.826124637923	4
50	8731	503.432036193781	5
50	8738	503.935285711471	4
50	8750	504.738389252001	7
50	8760	505.543353455591	7
50	8795	509.8	18
50	8814	511.4	15
50	8830	512.601899604061	11
50	8854	514.607744807723	19
50	8876	516.410146275626	17
50	8902	520.8	8
50	8917	522	11
50	8930	523.108274014694	10
50	8937	523.610327409649	4
50	8948	524.312200035351	6
50	8966	525.92013023335	15
50	8986	527.526182760249	15
50	9007	529.234610605479	16
50	9043	532.243416131403	29
50	9074	534.94927349191	26
50	9089	536.053084738762	10
50	9188	544	40
50	9193	544.4	3
50	9202	545.109689001643	6
50	9219	546.418490344352	12
50	9235	547.825584529476	13
50	9255	549.4261740661	15
50	9275	551.032304945716	15
50	9305	553.639272905876	25
50	9332	556.9	9
50	9348	558.2	12
50	9357	558.906016444952	6
50	9396	562.213248956128	32
50	9415	563.91574206211	16
50	9434	565.416756308286	14
50	9452	566.821316474785	13
50	9486	571.9	19
50	9514	574.2	22
50	9522	574.806629643356	5
50	9542	576.415165396146	15
50	9570	578.821160809723	23
50	9578	579.424617819855	5
50	9594	580.628885895019	11
50	9609	581.932056118117	12
50	9623	582.935828760131	9
50	9640	584.245322776958	12
50	9664	588.8	8
50	9672	589.5	6
50	9693	591.208805578246	16
50	9706	592.113840424364	8
50	9738	594.923336670465	27
50	9753	596.028006943116	10
50	9761	596.629912408463	5
50	9773	597.629971065005	9
50	9787	598.636422493411	9
50	9809	600.437574265531	17
50	9818	601.141773385709	6
50	9880	605.1	11
50	9915	606.5	13
50	9977	609.507732596511	29
50	9998	611.209877663915	16
50	10005	611.712677019866	4
50	10042	614.81668965804	30
50	10059	616.120584000363	12
50	10082	618.025628276385	18
50	10102	619.828899366084	17
50	10122	621.43508600619	15
50	10158	624.442942161081	29
50	10235	629.9	19
50	10278	631.6	16
50	10314	634.608391945427	29
50	10325	635.50938865011	8
50	10342	636.816351571282	12
50	10350	637.422752668553	5
50	10376	639.629468065204	21
50	10463	644.1	21
50	10552	648.1	39
50	10578	649.304367581463	11
50	10588	649.806587325277	4
50	10598	650.413046553712	5
50	10623	652.518015591271	20
50	10651	654.920393077306	23
50	10675	656.929714949315	19
50	10693	658.33448896635	13
50	10709	659.735142561308	13
50	10730	662.5	5
50	10749	664.1	15
50	10777	666.501620518392	23
50	10798	668.208732210303	16
50	10817	669.915643525943	16
50	10830	670.823686844424	8
50	10852	672.623817666945	17
50	10863	673.528674733216	8
50	10899	677.8	18
50	10912	678.8	9
50	10929	680.104216595711	12
50	10954	682.211239498636	20
50	10970	683.615594774143	13
50	10992	685.418255620191	17
50	11014	687.22540334019	17
50	11036	690.4	4
50	11056	692.1	16
50	11076	693.90568403335	17
50	11089	694.811554622812	8
50	11101	695.812535988149	9
50	11132	698.318081654371	24
50	11164	701.128056089331	27
50	11203	706.2	22
50	11213	707.1	8
50	11254	710.6061798553	34
50	11277	712.50663192171	18
50	11319	716.116525426442	35
50	11342	720.5	5
50	11368	722.8	22
50	11386	724.2091971734	13
50	11401	725.513332235398	12
50	11415	726.523009809252	9
50	11442	728.826401662604	22
50	11464	730.630513381514	17
50	11490	732.83383709606	21
50	11501	733.735185375516	8
50	11548	738.8	28
50	11563	740	11
50	11579	741.404680807355	13
50	11600	743.109538620242	16
50	11618	744.517792725429	13
50	11629	745.427587200034	8
50	11648	746.935030605563	14
50	11676	749.34099737521	23
50	11692	750.547931452518	11
50	11742	757	30
50	11756	758.1	10
50	11768	759.1092665001	9
50	11784	760.319138229079	11
50	11816	763.119459135475	27
50	11832	764.325249427399	11
50	11853	766.025271983086	16
50	11872	767.735053657372	16
50	11885	768.639453663266	8
50	11896	769.546638230524	8
50	11918	771.349835730698	17
50	11968	777	30
50	11985	778.4	13
50	11996	779.304527218255	8
50	12007	780.007990067444	6
50	12021	781.215829676563	11
50	12027	781.618110974876	3
50	12042	782.727693870608	10
50	12065	784.635364357298	18
50	12105	790.2	22
50	12145	793.9	36
50	12172	796.003780254253	20
50	12188	797.407749093639	13
50	12212	799.417589821138	19
50	12244	802.026918176456	25
50	12253	802.732493695112	6
50	12278	804.83740408445	20
50	12300	806.644974652242	17
50	12323	808.55054418117	18
50	12333	809.350995690652	7
50	12367	812.153703594703	27
50	12380	813.261308729128	10
50	12405	816.8	8
50	12424	818.4	15
50	12435	819.301705817177	8
50	12442	819.811186934262	4
50	12464	821.614336577276	17
50	12486	823.419178881567	17
50	12499	824.32041765705	8
50	12516	825.826803232587	14
50	12552	829.8	18
50	12560	830.3	4
50	12589	832.80648250424	24
50	12606	834.112346121165	12
50	12621	835.421409744707	12
50	12636	836.530682314741	10
50	12665	841.1	11
50	12680	842.3	11
50	12706	844.507632466251	21
50	12713	845.013803338225	4
50	12720	845.516542401675	4
50	12733	846.423997065651	8
50	12744	847.328244474088	8
50	12750	847.735421405718	3
50	12766	848.935567316498	11
50	12789	852.7	7
50	12801	853.8	10
50	12844	857.509805237373	36
50	12861	858.816476420845	12
50	12877	860.02343479907	11
50	12905	862.431758220178	23
50	12945	868	20
50	12960	869.4	13
50	12966	869.800278696524	3
50	13000	872.610125304694	27
50	13020	874.212028338278	15
50	13037	875.720400491093	14
50	13078	880.1	21
50	13092	881.4	12
50	13109	882.70112371653	12
50	13148	886.005604183475	32
50	13165	887.510468857594	14
50	13177	888.316384257721	7
50	13200	890.21932636688	18
50	13223	892.122311019054	18
50	13239	893.525749246042	13
50	13273	897.6	16
50	13287	898.7	10
50	13310	900.605781293103	18
50	13323	901.711675949484	10
50	13344	903.421235553634	16
50	13360	904.622881647546	11
50	13368	905.225927575323	5
50	13420	911.2	32
50	13435	912.4	11
50	13449	913.608101664828	11
50	13469	915.213166351779	15
50	13489	916.819220366498	15
50	13508	918.320812798027	14
50	13520	919.327268575407	9
50	13538	920.727473523025	13
50	13557	922.231233041474	14
50	13582	926.9	9
50	13600	928.4	14
50	13608	929.000102409941	5
50	13616	929.604932824833	5
50	13626	930.213023690926	5
50	13638	931.219845292682	9
50	13646	931.828428335536	5
50	13670	934.9	9
50	13692	936.8	18
50	13703	937.703274173305	8
50	13714	938.406483069077	6
50	13724	939.208378678756	7
50	13751	941.517472144514	22
50	13788	944.626431948551	30
50	13809	946.329961896288	16
50	13820	947.230360747355	8
50	13834	948.234820456672	9
50	13865	950.944324059197	26
50	13911	956.6	26
50	13935	958.7	20
50	13949	959.902928617559	11
50	13962	960.809203313313	8
50	13988	963.009936024361	21
50	14007	964.517348472283	14
50	14019	965.519591908005	9
50	14037	966.919723321832	13
50	14053	968.12110925088	11
50	14070	969.622768450943	14
50	14086	970.832202697678	11
50	14099	971.938687345469	10
50	14113	972.943699538674	9
50	14128	974.049258330977	10
50	14159	979.3	13
50	14172	980.3	9
50	14198	982.508794010602	21
50	14218	984.112829789483	15
50	14235	985.613157382498	14
50	14247	986.414581061466	7
50	14276	988.923563400338	24
50	14296	990.525639461133	15
50	14373	995.8	18
50	14402	997	11
50	14430	998.106124543542	10
50	14462	999.612089760879	14
50	14474	1000.013324414981	3
50	14490	1000.819360352934	7
50	14500	1001.627235750763	7
50	14516	1002.836490148647	11
50	14525	1003.540644735432	6
50	14537	1004.350188735603	7
50	14546	1005.052180895424	6
50	14552	1005.4556856636	3
50	14610	1011.9	39
50	14625	1013.1	11
50	14653	1015.505301934089	23
50	14670	1016.813750257726	12
50	14701	1019.516170084437	26
50	14718	1020.818406503044	12
50	14735	1022.126732906898	12
50	14757	1026.7	7
50	14776	1028.3	15
50	14807	1031.003898070256	26
50	14834	1033.31178379122	22
50	14845	1034.019337446857	6
50	14869	1036.02368631127	19
50	14880	1036.925055466747	8
50	14902	1040.7	7
50	14919	1042.1	13
50	14929	1042.909065764069	7
50	14952	1044.81575465644	18
50	14959	1045.320585354645	4
50	14992	1048.030435873113	26
50	15004	1049.038585719195	9
50	15019	1050.144005782661	10
50	15043	1052.144075677065	19
50	15052	1052.849329772401	6
50	15062	1053.653559877889	7
50	15086	1056.6	6
50	15109	1058.6	19
50	15121	1059.606768871676	9
50	15135	1060.615458318027	9
50	15146	1061.517880622906	8
50	15162	1062.719500167233	11
50	15176	1063.926933435616	11
50	15231	1068.63465168914	46
50	15277	1074.6	26
50	15295	1076.1	14
50	15300	1076.40708845389	2
50	15323	1078.309304589854	18
50	15335	1079.309356394229	9
50	15351	1080.515099747169	11
50	15372	1082.220673752911	16
50	15402	1087.2	12
50	15416	1088.3	10
50	15429	1089.405363007246	10
50	15444	1090.508584952412	10
50	15468	1092.515343955931	19
50	15480	1093.522931758695	9
50	15496	1094.725609536723	11
50	15508	1095.729019847761	9
50	15544	1099.8	18
50	15561	1101.2	13
50	15586	1103.306952940118	20
50	15605	1104.81626390685	14
50	15628	1106.721092054691	18
50	15648	1108.323306583851	15
50	15665	1109.831675477403	14
50	15685	1111.44101948254	15
50	15704	1112.945324071726	14
50	15730	1117	10
50	15748	1118.5	14
50	15758	1119.306719532799	7
50	15781	1121.212674688064	18
50	15822	1126.1	21
50	15849	1128.5	23
50	15859	1129.30895500116	7
50	15878	1130.818711254058	14
50	15908	1133.421569381481	25
50	15923	1134.523057869073	10
50	15938	1135.823133738696	12
50	15961	1137.725128588942	18
50	15991	1140.132387999629	23
50	16007	1141.533720498923	13
50	16020	1142.436094469718	8
50	16041	1144.143852048831	16
50	16049	1144.744659372235	5
50	16054	1145.047070191863	2
50	16062	1145.647973632285	5
50	16075	1146.551782379437	8
50	16128	1153.3	33
50	16139	1154.1	7
50	16159	1155.901462281837	17
50	16193	1158.708682336184	27
50	16220	1161.017668256315	22
50	16242	1162.824486981194	17
50	16265	1164.725778755826	18
50	16302	1170	20
50	16316	1171.3	12
50	16340	1173.303892468335	19
50	16354	1174.311650243827	9
50	16366	1175.315855674372	9
50	16373	1175.820505050118	4
50	16393	1177.427867722308	15
50	16456	1184.1	41
50	16463	1184.7	5
50	16483	1186.308001303325	15
50	16511	1188.716156882482	23
50	16541	1191.320826879575	25
50	16565	1193.325526364632	19
50	16612	1198.7	27
50	16622	1199.6	8
50	16633	1200.308894509461	6
50	16641	1200.910467058319	5
50	16656	1202.014810321527	10
50	16663	1202.521186513542	4
50	16671	1203.125226942212	5
50	16693	1206.7	7
50	16714	1208.5	17
50	16745	1211.203827300581	26
50	16766	1212.911265329073	16
50	16786	1214.513417702242	15
50	16807	1216.222217738248	16
50	16826	1217.926757202957	16
50	16868	1222.5	25
50	16887	1224.1	15
50	16917	1226.70260969982	25
50	16942	1228.802741911266	20
50	16964	1230.60831096711	17
50	16972	1231.211466138084	5
50	16993	1232.917477174129	16
50	17030	1237.9	19
50	17049	1239.5	15
50	17060	1240.204148342835	6
50	17076	1241.613712631426	13
50	17089	1242.519721624075	8
50	17100	1243.42329792213	8
50	17107	1243.927763915281	4
50	17124	1245.22984073301	12
50	17141	1246.533403646025	12
50	17156	1247.83853549572	12
50	17164	1248.238536332469	3
50	17178	1249.444660040683	11
50	17193	1250.547180062344	10
50	17206	1251.650598086163	10
50	17292	1256.2	22
50	17317	1257.4	11
50	17329	1257.909404853398	4
50	17339	1258.510066093774	5
50	17347	1259.111257333142	5
50	17364	1260.41301289796	12
50	17392	1262.822851034515	23
50	17398	1263.229658024758	3
50	17416	1264.634569929921	13
50	17434	1266.042341297486	13
50	17443	1266.746804867869	6
50	17452	1267.448336893264	6
50	17471	1268.954938673304	14
50	17489	1270.362859013533	13
50	17525	1275.9	19
50	17568	1279.7	37
50	17603	1282.601888844815	28
50	17626	1284.506011768776	18
50	17659	1289.5	15
50	17677	1291	14
50	17686	1291.702668118982	6
50	17728	1295.305366395304	35
50	17739	1296.009214453158	6
50	17751	1297.01287449736	9
50	17760	1297.719744744404	6
50	17780	1300.5	5
50	17802	1302.4	18
50	17825	1304.306465304519	18
50	17852	1306.614677185383	22
50	17867	1307.922794717337	12
50	17896	1310.223566576096	22
50	17923	1312.524448908556	22
50	17944	1314.234059374507	16
50	17961	1315.735931976821	14
50	17993	1319.5	15
50	18002	1320.1	5
50	18011	1320.80346035286	6
50	18022	1321.704110276954	8
50	18042	1323.31046985555	15
50	18067	1325.410945378798	20
50	18081	1326.414276843068	9
50	18112	1329.121657726552	26
50	18127	1330.227712074242	10
50	18144	1331.730631130641	14
50	18178	1334.539924925566	27
50	18219	1338.2	2
50	18227	1338.9	6
50	18242	1340.009733305769	10
50	18251	1340.719645274961	6
50	18263	1341.729272869494	9
50	18317	1346.337112342474	45
50	18338	1348.041396353864	16
50	18356	1349.646763503118	15
50	18372	1350.855174913045	11
50	18391	1352.357566535023	14
50	18404	1353.458038276782	10
50	18423	1354.965583124068	14
50	18500	1359.9	19
50	18529	1361.1	11
50	18551	1362.005145235275	8
50	18615	1364.807492790409	27
50	18680	1368.611328712853	37
50	18695	1369.916382935065	12
50	18718	1371.81664390589	18
50	18744	1374.8	8
50	18763	1376.4	15
50	18780	1377.904174707389	14
50	18818	1381.105129006094	31
50	18831	1382.010242253272	8
50	18855	1384.013988089757	19
50	18891	1387.217591084029	31
50	18941	1393	30
50	18950	1393.8	7
50	18968	1395.208313770943	13
50	18983	1396.308952267932	10
50	18999	1397.718175704745	13
50	19030	1400.227486150327	24
50	19053	1402.130683612811	18
50	19085	1406.6	6
50	19095	1407.5	8
50	19112	1408.807281396053	12
50	19166	1413.613469985988	47
50	19197	1417.3	13
50	19231	1420.2	28
50	19246	1421.509022327114	12
50	19257	1422.213942373694	6
50	19266	1422.920387897064	6
50	19273	1423.4300862115	4
50	19279	1423.838796863349	3
50	19290	1424.54436941633	6
50	19316	1426.750685570673	21
50	19336	1428.358945282827	15
50	19358	1430.159954099949	17
50	19382	1432.169175019956	19
50	19457	1437.7	17
50	19478	1438.6	8
50	19496	1439.805370776916	11
50	19510	1440.809305560995	9
50	19541	1443.513834625064	26
50	19555	1444.51726200134	9
50	19568	1445.617796123346	10
50	19599	1449.6	16
50	19609	1450.3	6
50	19621	1451.306934233834	9
50	19633	1452.110606703208	7
50	19651	1453.718053220383	15
50	19665	1454.724706572562	9
50	19687	1456.532029641054	17
50	19711	1458.534693116876	19
50	19748	1461.838352833245	32
50	19757	1462.341862463973	4
50	19768	1463.251351093282	8
50	19781	1464.155318193845	8
50	19792	1465.063723034765	8
50	19841	1471.1	31
50	19860	1472.7	15
50	19867	1473.206792871525	4
50	19884	1474.513350204538	12
50	19897	1475.614157357864	10
50	19923	1477.819928208602	21
50	19952	1480.128136094648	22
50	19985	1483.036349208145	28
50	20009	1485.044424084878	19
50	20026	1486.353136995047	12
50	20052	1491	10
50	20074	1492.9	18
50	20079	1493.203510572107	2
50	20135	1498.00838402399	47
50	20156	1499.910043265867	18
50	20171	1501.019965787086	10
50	20188	1502.327457319775	12
50	20195	1502.831305684819	4
50	20203	1503.433200518308	5
50	20232	1505.940793553181	24
50	20255	1507.842927189976	18
50	20319	1514.2	42
50	20327	1514.9	6
50	20344	1516.200642709617	12
50	20359	1517.510420521701	12
50	20378	1519.013550586144	14
50	20395	1520.322058765911	12
50	20407	1521.325475487284	9
50	20424	1522.626398875125	12
50	20446	1524.431543310206	17
50	20476	1527.040174820186	25
50	20493	1528.34213693517	12
50	20515	1530.146728082275	17
50	20530	1531.453237465069	12
50	20569	1534.7	7
50	20580	1535.7	9
50	20594	1536.702094772448	9
50	20612	1538.109235621242	13
50	20628	1539.515873341896	13
50	20647	1541.020231047934	14
50	20666	1542.525190085077	14
50	20705	1548.2	22
50	20723	1549.9	16
50	20746	1551.802131245504	18
50	20769	1553.710550388349	18
50	20794	1555.812370809493	20
50	20819	1557.912985164389	20
50	20843	1559.918727073579	19
50	20883	1564.3	23
50	20900	1565.9	15
50	20915	1567.000368890415	10
50	20935	1568.606000278302	15
50	20956	1570.3082772316	16
50	20972	1571.715172452245	13
50	20988	1572.917050468563	11
50	21007	1574.422264960363	14
50	21031	1576.428848647264	19
50	21052	1578.132488760064	16
50	21079	1583.1	11
50	21094	1584.3	11
50	21104	1585.102098579707	7
50	21118	1586.106601367143	9
50	21130	1587.113237311096	9
50	21143	1588.018253274418	8
50	21155	1589.025876427199	9
50	21199	1594.7	27
50	21219	1596.4	16
50	21244	1598.500439079387	20
50	21274	1601.101311617025	25
50	21292	1602.50241346663	13
50	21312	1604.10979673945	15
50	21332	1605.912730307985	17
50	21382	1611.3	33
50	21406	1613.4	20
50	21419	1614.305152286223	8
50	21429	1615.113607579208	7
50	21435	1615.516839484047	3
50	21449	1616.520003611693	9
50	21469	1618.123420461824	15
50	21473	1618.328659112481	1
50	21494	1622.3	3
50	21524	1625	26
50	21549	1627.108918413824	20
50	21568	1628.615569923784	14
50	21596	1631.020346172848	23
50	21627	1635.3	13
50	21640	1636.3	9
50	21648	1636.901090510045	5
50	21656	1637.50674976641	5
50	21713	1642.409539982463	48
50	21722	1643.115708065019	6
50	21736	1644.116231223347	9
50	21746	1644.921440176535	7
50	21757	1645.827641261228	8
50	21767	1646.430986003869	5
50	21774	1646.934762917175	4
50	21875	1653.2	32
50	21888	1654.2	9
50	21906	1655.807464703943	15
50	21914	1656.210838222189	3
50	21950	1659.414288722322	31
50	21965	1660.517572175875	10
50	21991	1662.724358686754	21
50	22004	1663.825748626422	10
50	22012	1664.233353611896	3
50	22028	1665.636049228421	13
50	22037	1666.144888951851	4
50	22070	1671.6	16
50	22088	1673.1	14
50	22110	1674.903837164954	17
50	22133	1676.813361884196	18
50	22160	1679.118453391663	22
50	22170	1679.920916510637	7
50	22192	1681.728441290252	17
50	22232	1685.134373716343	33
50	22255	1687.036758699194	18
50	22280	1689.142726040876	20
50	22303	1691.043806782141	18
50	22313	1691.853055051478	7
50	22356	1696.3	23
50	22386	1699	26
50	22401	1700.10957466714	10
50	22408	1700.617238498895	4
50	22430	1702.418647045832	17
50	22456	1704.625205065425	21
50	22481	1706.726785345369	20
50	22508	1709.02796265332	22
50	22519	1709.933533359451	8
50	22539	1711.537133589346	15
50	22566	1713.838998020557	22
50	22599	1716.539944120066	26
50	22619	1720.2	2
50	22632	1721.4	11
50	22650	1722.801433461657	13
50	22663	1723.908944618559	10
50	22675	1724.71593804329	7
50	22702	1727.021089481355	22
50	22745	1732.3	23
50	22760	1733.7	13
50	22772	1734.501591795927	7
50	22801	1737.005219757603	24
50	22845	1740.814956284393	37
50	22888	1746.3	23
50	22900	1747.4	10
50	22927	1749.706623088857	22
50	22936	1750.216104602524	4
50	22951	1751.517230567444	12
50	22972	1753.225490965029	16
50	22976	1753.427209306788	1
50	23008	1756.035827814538	25
50	23025	1757.541889225048	14
50	23046	1759.245164099737	16
50	23082	1763.8	18
50	23105	1765.8	19
50	23128	1767.702647891696	18
50	23132	1767.912580319416	1
50	23147	1769.021788001597	10
50	23170	1770.924010512068	18
50	23180	1771.725587162317	7
50	23201	1773.428545446612	16
50	23223	1775.234951339123	17
50	23243	1776.843998393661	15
50	23266	1778.746312088538	18
50	23306	1784.2	22
50	23327	1786	17
50	23338	1786.906938554383	8
50	23359	1788.61331249168	16
50	23369	1789.41859896075	7
50	23395	1791.628104304364	21
50	23409	1792.630333532001	9
50	23419	1793.438139224887	7
50	23431	1794.239356164195	7
50	23438	1794.744476017112	4
50	23466	1797.144509567486	23
50	23517	1803.1	31
50	23524	1803.7	5
50	23536	1804.500253617523	7
50	23545	1805.204265995665	6
50	23562	1806.510078207041	12
50	23572	1807.318839043023	7
50	23587	1808.420325744369	10
50	23620	1813.8	18
50	23633	1814.8	9
50	23653	1816.402325562259	15
50	23658	1816.707748069096	2
50	23665	1817.217730144277	4
50	23686	1818.925553459632	16
50	23702	1820.129914180382	11
50	23706	1820.331491863885	1
50	23721	1821.640712677311	12
50	23791	1826.5	25
50	23816	1828.7	21
50	23827	1829.60002377524	8
50	23850	1831.503898581473	18
50	23865	1832.610012697416	10
50	23895	1835.21394849579	25
50	23916	1838.3	3
50	23932	1839.8	14
50	23942	1840.409693489156	5
50	23963	1842.111481329791	16
50	23989	1844.316600936403	21
50	23999	1845.116764593716	7
50	24014	1846.217041171104	10
50	24039	1848.319014492928	20
50	24054	1849.623100527475	12
50	24103	1853.4	14
50	24129	1855.7	22
50	24160	1858.205306407425	24
50	24176	1859.609085370362	13
50	24196	1861.213948097917	15
50	24212	1862.421431109161	11
50	24223	1863.325563571148	8
50	24245	1865.127736211386	17
50	24263	1866.535741038398	13
50	24279	1867.942205674232	13
50	24298	1869.449663758771	14
50	24314	1870.651737510179	11
50	24324	1871.452879090743	7
50	24350	1875	10
50	24363	1876	9
50	24377	1877.209462798978	11
50	24391	1878.215011135539	9
50	24404	1879.317961462555	10
50	24428	1881.322139770989	19
50	24440	1882.122735748137	7
50	24469	1887.4	14
50	24481	1888.3	8
50	24490	1889.003497915249	6
50	24498	1889.608415826768	5
50	24509	1890.313210640169	6
50	24525	1891.714684711842	13
50	24544	1893.218762062106	14
50	24556	1894.025846916965	7
50	24573	1895.534082026432	14
50	24584	1896.23748327904	6
50	24591	1896.73762293299	4
50	24618	1899.046581888711	22
50	24650	1903.4	14
50	24656	1903.9	4
50	24696	1907.302794951025	33
50	24713	1908.611957898125	12
50	24754	1914.1	21
50	24766	1915.2	10
50	24778	1916.006822207644	7
50	24795	1917.512790900752	14
50	24811	1918.721426234831	11
50	24831	1920.323532087529	15
50	24855	1922.329102147925	19
50	24878	1924.237137959208	18
50	24918	1927.841400701063	35
50	24930	1928.650215867482	7
50	24952	1930.45737417921	17
50	24988	1935.9	19
50	24994	1936.2	2
50	25008	1937.404646653428	11
50	25023	1938.507558054709	10
50	25045	1940.313848036997	17
50	25062	1941.818224591274	14
50	25084	1943.626924029145	17
50	25120	1946.631386441479	29
50	25161	1952.1	21
50	25183	1954	18
50	25195	1955.000056672354	9
50	25209	1956.003261928378	9
50	25236	1958.313090944035	22
50	25248	1959.321767706247	9
50	25265	1960.630876926551	12
50	25297	1965.7	17
50	25308	1966.5	7
50	25315	1967.006977945731	4
50	25343	1969.410396384167	23
50	25357	1970.418249717993	9
50	25370	1971.520765635657	10
50	25379	1972.023240720873	4
50	25422	1978.6	26
50	25439	1980	13
50	25453	1981.206504178808	11
50	25472	1982.710791823276	14
50	25482	1983.511872548366	7
50	25516	1986.314721533114	27
50	25545	1988.816670619873	24
50	25554	1989.523804588745	6
50	25598	1993.32804014023	37
50	25610	1994.134389823002	7
50	25650	2000.2	22
50	25683	2003.2	29
50	25719	2006.207471614305	29
50	25737	2007.813792376045	15
50	25756	2009.315934925311	14
50	25793	2012.424472095222	30
50	25832	2015.838911222764	33
50	25840	2016.241764850921	3
50	25859	2017.950973867147	16
50	25895	2021.8	18
50	25915	2023.5	16
50	25936	2025.202632803521	16
50	25957	2026.90560083491	16
50	25977	2028.513200545045	15
50	26007	2031.115020051747	25
50	26034	2033.422654672148	22
50	26079	2038.5	25
50	26098	2040.1	15
50	26121	2042.001389166614	18
50	26153	2044.810266997764	27
50	26178	2046.912217786115	20
50	26208	2049.519722983169	25
50	26254	2053.526134453385	39
50	26270	2054.736060349463	11
50	26289	2056.239065605158	14
50	26316	2058.545248962746	22
50	26351	2061.653833573216	30
50	26400	2065.956511618816	42
50	26451	2071.1	31
50	26459	2071.8	6
50	26477	2073.204227078906	13
50	26499	2075.013110932463	17
50	26506	2075.51615724981	4
50	26525	2077.024945450207	14
50	26533	2077.634161830754	5
50	26567	2080.439743905276	27
50	26571	2080.640436368571	1
50	26616	2086.7	27