version 2
run Join-83-20130429-12:55:47-17679
attr configname Join
attr datetime 20130429-12:55:47
attr experiment "\"Join\""
attr inifile omnetpp.ini
attr iterationvars $0=8192
attr iterationvars2 "$0=8192, $repetition=3"
attr measurement $0=8192
attr network Network
attr processid 17679
attr repetition 3
attr replication #3
attr resultdir results
attr runnumber 83
attr seedset 83

vector 83  Network.dyn_peer[0]  lookupHopsSig:vector  ETV
83	22288	20.506327592723	15
83	22308	22.112835298275	15
83	22359	26.614120446938	44
83	22374	27.921490509578	12
83	22445	34.027161893349	60
83	22478	36.935043221509	28
83	22585	48.3	83
83	22623	51.8	34
83	22678	56.503465433891	46
83	22821	69.412138331166	128
83	22864	73.117411493995	36
83	22884	74.72554169935	15
83	22927	78.42580082072	36
83	22984	83.534049257971	50
83	23022	86.741135821905	31
83	23063	90.248287800156	34
83	23090	92.556756979552	22
83	23213	105.7	97
83	23247	108.6	28
83	23320	115.107118616686	64
83	23335	116.215795117672	10
83	23367	119.019404242883	27
83	23408	122.529197783222	34
83	23463	127.436131172644	48
83	23554	136.7	67
83	23578	138.8	20
83	23634	143.808442816811	49
83	23691	148.718364841574	48
83	23740	153.027465852123	42
83	23816	159.828710615475	67
83	23835	161.332799917325	14
83	23859	163.334566899603	19
83	23977	173.935968984442	105
83	24036	179.039784057717	50
83	24103	183.4	14
83	24156	185.8	23
83	24308	192.600478971288	67
83	24412	199.905683704921	72
83	24444	202.510166776069	25
83	24490	206.51724671738	39
83	24515	208.622859441756	20
83	24545	213.5	15
83	24604	218.7	51
83	24627	220.606341091089	18
83	24670	224.312295702369	36
83	24688	225.915137762552	15
83	24707	227.418796000223	14
83	24744	230.524554736524	30
83	24790	234.530486289833	39
83	24833	238.23622549778	36
83	24868	241.345356248944	30
83	24907	244.648937687676	32
83	24958	249.158646101788	44
83	25000	252.760119400151	35
83	25035	255.863906009549	30
83	25076	259.373563981761	34
83	25178	269.9	79
83	25216	273.2	32
83	25262	277.205909500231	39
83	25347	284.714265465524	74
83	25388	288.221582953817	34
83	25423	291.324291567244	30
83	25466	295.024903807489	36
83	25540	301.628420879266	65
83	25615	308.132521196422	64
83	25673	313.341626794293	51
83	25719	318.6	26
83	25787	324.7	60
83	25828	328.20841053633	34
83	25894	334.011392081181	57
83	25967	340.519825329346	64
83	26021	345.321606399597	47
83	26124	351	30
83	26173	353.2	21
83	26261	357.204235156113	39
83	26335	360.513468178102	32
83	26409	363.916353694229	33
83	26457	366.018387485871	20
83	26603	372.823685981301	67
83	26687	380.2	42
83	26709	382.1	18
83	26762	386.800717618158	46
83	26826	392.409201750715	55
83	26892	398.214331506042	57
83	26963	404.52053663712	62
83	27013	408.925957291403	43
83	27052	412.226729503313	32
83	27076	414.233807865506	19
83	27100	416.240120899476	19
83	27283	426.8	68
83	27414	432.8	59
83	27458	434.805850945019	19
83	27520	437.612565613078	27
83	27630	442.514607348647	48
83	27754	448.21517928885	56
83	27785	450.919845190895	26
83	27812	453.222605350342	22
83	27846	456.025802917842	27
83	27876	458.630293478011	25
83	27944	464.631474444968	59
83	28071	472.2	42
83	28148	475.8	35
83	28210	478.505209395755	26
83	28282	481.811004233958	32
83	28367	485.713652707284	38
83	28411	489.517663361848	37
83	28471	494.719762985726	51
83	28688	516.4	184
83	28696	517.1	6
83	28704	517.700650789539	5
83	28773	523.804599284489	60
83	28846	530.10905607109	62
83	28913	536.017884600216	58
83	28990	542.927725051951	68
83	29044	547.730928373797	47
83	29113	553.832885249817	60
83	29179	559.636844230318	57
83	29257	566.446162000792	67
83	29324	572.350644238362	58
83	29399	579.059360169874	66
83	29467	585.067698982791	59
83	29496	587.568740218747	24
83	29547	593.2	32
83	29551	593.5	2
83	29560	594.000225555477	4
83	29616	599.006036995567	49
83	29621	599.313290637693	2
83	29628	599.820538481325	4
83	29660	602.42585586131	25
83	29699	608.2	22
83	29727	610.7	24
83	29768	614.202218818177	34
83	29803	617.311639330705	30
83	29831	619.720390586886	23
83	29882	624.022489818088	42
83	29929	628.129194652561	40
83	30033	637.534121456744	93
83	30061	639.934951843136	23
83	30120	645.038704320137	50
83	30170	649.44288444188	43
83	30315	657	50
83	30390	660.4	33
83	30472	664.109939117846	36
83	30540	667.316690874742	31
83	30636	672.02313703474	46
83	30714	679.032096406173	69
83	30755	682.535606856428	34
83	30761	682.936970740612	3
83	30793	687.4	14
83	30832	690.8	33
83	30854	692.603095943185	17
83	30891	695.905459513859	32
83	30926	698.809199698289	28
83	30948	700.615319629971	17
83	31029	707.915393460486	72
83	31056	710.017919033297	20
83	31080	712.019500233153	19
83	31151	718.327557686254	62
83	31224	724.830863106235	64
83	31249	726.937763664937	20
83	31433	737.9	79
83	31468	740.9	29
83	31489	742.602446794367	16
83	31544	747.511334073393	48
83	31593	751.820465079069	42
83	31633	755.224605824859	33
83	31778	763.1	51
83	31863	767	38
83	31975	772.204967832346	51
83	32095	777.706933023044	54
83	32163	780.713031309772	29
83	32269	785.513143589229	47
83	32325	788.017754191034	24
83	32427	792.723400130893	46
83	32480	795.429226632578	26
83	32600	807.6	96
83	32706	817.1	94
83	32755	821.404957205862	42
83	32791	824.410517957649	29
83	32802	825.312566655439	8
83	32868	832.4	44
83	32913	836.4	39
83	32949	839.608008212037	31
83	33007	844.612222535148	49
83	33083	851.42217131699	67
83	33155	857.831594105346	63
83	33180	859.939207307181	20
83	33232	864.34209861246	43
83	33286	869.147186907362	47
83	33388	878.152977384556	89
83	33476	884.4	24
83	33534	887.7	32
83	33567	890.401030893702	26
83	33590	892.301976386552	18
83	33645	897.210929681508	48
83	33691	901.215258719451	39
83	33760	907.318440624161	60
83	33895	921	110
83	33939	924.9	38
83	33967	927.308923864203	23
83	34023	932.116677556223	47
83	34098	938.81974653248	66
83	34142	942.629426626893	37
83	34171	945.138197765014	24
83	34224	949.847412703359	46
83	34311	958.5	65
83	34351	962	34
83	34391	965.60497506364	35
83	34436	969.506544048841	38
83	34479	973.213181766971	36
83	34491	974.013716952685	7
83	34598	981.3	33
83	34693	985.6	42
83	34760	989.606912582609	39
83	34814	994.212132227813	45
83	34866	998.812243109842	45
83	34913	1002.919705359896	40
83	34941	1005.327242239778	23
83	35002	1010.631936464162	52
83	35022	1012.240489207344	15
83	35066	1016.044410952304	37
83	35147	1023.349786604063	72
83	35194	1027.455395541111	40
83	35300	1033.3	33
83	35415	1038.6	52
83	35509	1042.801035137118	41
83	35607	1047.204820254344	43
83	35693	1051.106650445965	38
83	35857	1058.611535698108	74
83	35936	1064.111984257346	54
83	36122	1072	40
83	36217	1075	29
83	36268	1076.505554449302	14
83	36333	1078.508464778088	19
83	36435	1081.715151555001	31
83	36608	1087.017570287474	52
83	36729	1090.817964384367	37
83	36833	1096.2	22
83	36911	1103.3	70
83	36953	1106.907726370249	35
83	36996	1110.615922218599	36
83	37015	1112.125836286063	14
83	37077	1117.733332066123	55
83	37111	1120.533856421803	27
83	37186	1129.6	56
83	37234	1133.9	42
83	37271	1137.002322844637	30
83	37304	1139.908184123893	28
83	37406	1148.909279215153	89
83	37451	1152.809385633581	38
83	37491	1156.21649145639	33
83	37523	1159.025547242012	27
83	37559	1162.031558958882	29
83	37601	1165.840694075032	37
83	37616	1166.943551912527	10
83	37643	1169.245813841235	22
83	37865	1177.8	58
83	37888	1178.8	9
83	37962	1182.109455504557	32
83	38016	1184.513738597486	23
83	38104	1188.514679129532	39
83	38169	1192.622886156715	40
83	38209	1196.02378205379	33
83	38230	1197.931273486623	18
83	38253	1199.833287013135	18
83	38317	1205.438847427649	55
83	38459	1219.4	114
83	38560	1228.4	89
83	38608	1232.604478821107	41
83	38642	1235.608613366759	29
83	38687	1239.510168041993	38
83	38895	1246.8	48
83	38994	1251	41
83	39102	1256.000390757394	49
83	39226	1261.804765501974	57
83	39272	1263.812309894514	19
83	39423	1273.815706106066	99
83	39634	1284	80
83	39742	1289.3	52
83	39790	1293.508686797074	41
83	39891	1302.415341996576	88
83	39977	1310.016191247401	75
83	40124	1319.1	51
83	40221	1323.7	45
83	40251	1324.901657099856	11
83	40335	1328.807763405041	38
83	40377	1330.608475349384	17
83	40462	1334.609421477459	39
83	40495	1337.515919262412	28
83	40510	1338.621701943601	10
83	40557	1342.730068155374	40
83	40602	1346.636656172935	38
83	40690	1354.446407447681	77
83	40769	1363.7	57
83	40845	1370.4	66
83	40887	1374.003042096288	35
83	40923	1377.206112262853	31
83	40980	1382.109298963995	48
83	41026	1386.11791322362	39
83	41087	1391.620618668031	54
83	41214	1398.2	42
83	41283	1401.5	32
83	41337	1403.901151836207	23
83	41435	1408.304538730014	43
83	41525	1412.408139550172	40
83	41601	1415.916425567584	34
83	41666	1420.220598157293	42
83	41688	1422.02468863067	17
83	41727	1425.529018039561	34
83	41774	1429.637093971948	40
83	41822	1433.841389526164	41
83	41861	1437.147729393462	32
83	41908	1441.251021681948	40
83	41959	1445.755242394894	44
83	42205	1457.8	98
83	42262	1460.3	24
83	42404	1466.909077378455	65
83	42487	1471.417984587116	44
83	42547	1476.627172271047	51
83	42595	1480.832799744197	41
83	42644	1485.138566519511	42
83	42725	1492.24702964507	70
83	42803	1499.247388194652	69
83	42860	1504.154840133866	48
83	42982	1517.6	96
83	43062	1524.7	70
83	43071	1525.407123774527	6
83	43092	1527.115941301765	16
83	43155	1532.616718594621	54
83	43212	1537.718424371085	50
83	43368	1545.8	58
83	43406	1549.1	32
83	43444	1552.3079679379	31
83	43504	1557.7127272186	53
83	43611	1567.220856291541	94
83	43649	1570.423436517569	31
83	43688	1573.926549396738	34
83	43721	1576.632394260125	26
83	43824	1583.1	31
83	43953	1589.9	67
83	43977	1591.901188990103	19
83	44010	1594.607238637781	26
83	44059	1598.910382587489	42
83	44088	1601.411376927835	24
83	44143	1606.116900638178	46
83	44163	1607.92636429496	17
83	44241	1614.731572443299	67
83	44356	1627	90
83	44395	1630.4	33
83	44428	1633.306173067316	28
83	44450	1635.115370366836	17
83	44516	1640.915812611726	57
83	44582	1646.717938366948	57
83	44627	1650.625294382741	38
83	44670	1654.330556195521	36
83	44683	1655.438251721959	10
83	44724	1658.944220705937	34
83	44767	1662.64723215859	36
83	44906	1670.9	49
83	44963	1673.6	26
83	45011	1676.903835826385	32
83	45075	1682.505670788909	55
83	45124	1686.809940069505	42
83	45173	1691.119842782822	42
83	45222	1695.422518307082	42
83	45288	1702.7	47
83	45295	1703.3	5
83	45345	1707.708999785641	43
83	45457	1717.711949122031	99
83	45499	1721.317700536367	35
83	45541	1724.918022332097	35
83	45613	1731.323564868249	63
83	45695	1736.1	21
83	45732	1737.9	17
83	45837	1742.604318181253	46
83	45983	1749.313588512286	66
83	46048	1753.420816243246	40
83	46115	1759.322137793117	58
83	46135	1760.926393806357	15
83	46155	1762.531514468668	15
83	46185	1767.2	12
83	46280	1775.8	85
83	46317	1778.905719896485	30
83	46365	1783.107958667173	41
83	46404	1786.412747833921	32
83	46441	1789.713552060242	32
83	46471	1792.120501399855	23
83	46499	1794.52086973648	23
83	46536	1797.82647290297	32
83	46575	1801.127342748066	32
83	46612	1804.230438002046	30
83	46651	1807.735112787397	34
83	46826	1817.2	72
83	46841	1818.4	11
83	46911	1824.603169148182	61
83	46958	1828.712460923736	40
83	47011	1833.4144438609	46
83	47082	1839.723818114756	62
83	47097	1840.826382449604	10
83	47179	1848.030786840554	71
83	47227	1852.235108002118	41
83	47278	1856.739464772321	44
83	47351	1865.3	53
83	47409	1870.4	50
83	47447	1873.80295534074	33
83	47503	1878.610461255397	47
83	47548	1882.514211031227	38
83	47584	1885.723029928971	31
83	47618	1888.527480182815	27
83	47659	1892.027998999412	34
83	47683	1894.029863378551	19
83	47721	1897.438881319941	33
83	47788	1903.341086023957	58
83	47883	1913.1	71
83	47891	1913.8	6
83	47931	1917.20320941111	33
83	47978	1921.306235658765	40
83	47989	1922.011584245936	6
83	48076	1929.918268113158	78
83	48112	1932.91990973243	29
83	48166	1937.723114097183	47
83	48229	1943.232368327658	54
83	48253	1945.238178082212	19
83	48306	1951.3	33
83	48351	1955.3	39
83	48392	1958.805206212843	34
83	48404	1959.814626647785	9
83	48443	1963.122605972002	32
83	48460	1964.432135975526	12
83	48490	1967.041850736278	25
83	48554	1972.64586250363	55
83	48584	1975.250617501468	25
83	48645	1980.555861562145	52
83	48683	1983.961294003256	33
83	48725	1987.565203957498	35
83	48774	1992.9	29
83	48812	1996.2	32
83	48863	2000.709074799425	44
83	48896	2003.61294365439	28
83	48920	2005.620057210802	19
83	48933	2006.529222629315	8
83	48977	2010.33442351334	37
83	49081	2022.1	81
83	49118	2025.5	33
83	49174	2030.305323006394	47
83	49230	2035.314274212594	49
83	49250	2036.916728380007	15
83	49309	2042.022736529595	50
83	49349	2045.631631780938	35
83	49432	2054.2	62
83	49485	2059	47
83	49511	2061.205603541212	21
83	49590	2068.107188193701	68
83	49643	2072.813265105738	46
83	49682	2076.115066580768	32
83	49727	2080.017571184283	38
83	49825	2088.819246025233	87
83	49875	2093.222529067526	43
83	49975	2102.02803232214	87
83	50014	2105.534398074092	34
83	50055	2109.036027301757	34
83	50141	2118.4	64
83	50192	2123	45
83	50240	2127.202349339942	41
83	50267	2129.510183982334	22
83	50317	2133.91626150478	43
83	50341	2135.924235140297	19
83	50381	2139.326594239578	33
83	50414	2142.029807607738	26
83	50449	2145.133913186911	30
83	50550	2154.041928533617	88
83	50636	2164.2	62
83	50690	2169.1	48
83	50726	2172.103208279949	29
83	50761	2175.207192616087	30
83	50785	2177.213485782145	19
83	50826	2180.713747824103	34
83	50866	2184.121733120804	33
83	50959	2194.9	69
83	51000	2198.5	35
83	51055	2203.405754658305	48
83	51078	2205.308242902676	18
83	51116	2208.515115141046	31
83	51170	2213.323151675767	47
83	51205	2216.230434194995	28
83	51260	2223.8	38
83	51276	2225.1	12
83	51373	2233.808542854015	86
83	51468	2242.111515647382	82
83	51500	2244.918851880896	27
83	51511	2245.82571152069	8
83	51603	2254.8	68
83	51651	2259.1	42
83	51693	2262.701525225071	35
83	51761	2268.709665676776	59
83	51779	2270.11274461731	13
83	51838	2275.420968463098	52
83	51866	2277.821363211009	23
83	51915	2283.2	32
83	51942	2285.6	23
83	51963	2287.304296332001	16
83	51975	2288.105782017723	7
83	52034	2293.411708278422	52
83	52092	2298.418209493499	49
83	52108	2299.827365688699	13
83	52126	2301.228571593883	13
83	52145	2302.734313954143	14
83	52179	2305.741160065131	29
83	52222	2309.443629219946	36
83	52266	2313.251230784756	37
83	52301	2317.7	17
83	52365	2323.4	56
83	52438	2329.90833375764	64
83	52510	2336.117257883003	61
83	52588	2343.125736112481	69
83	52655	2349.027883325969	58
83	52717	2354.436534571922	53
83	52766	2361.2	32
83	52836	2367.5	62
83	52882	2371.509899033806	39
83	52895	2372.418332831819	8
83	52912	2373.926780991718	14
83	52963	2378.233692734961	42
83	53003	2381.833844856836	35
83	53036	2384.535819891327	26
83	53081	2388.445309499117	38
83	53138	2393.547145051326	50
83	53186	2397.753894843415	41
83	53229	2401.458908930267	36
83	53236	2401.963308722469	4
83	53301	2407.664897542329	56
83	53440	2414.8	48
83	53519	2418.4	35
83	53545	2419.607458345019	11
83	53627	2423.708175569474	40
83	53667	2427.112520496849	33
83	53697	2429.713701104863	25
83	53736	2433.022306845433	32
83	53757	2434.729243769708	16
83	53796	2438.034092737433	32
83	53834	2441.438511638402	33
83	53963	2454.1	101
83	54040	2461.1	69
83	54087	2465.20688774761	40
83	54168	2472.314135783409	70
83	54199	2475.017624108836	26
83	54305	2484.41795034443	93
83	54341	2487.61936321654	31
83	54419	2494.423602132521	67
83	54473	2501.4	34
83	54513	2504.9	34
83	54574	2510.201003214363	52
83	54663	2518.106765217431	78
83	54703	2521.713247997713	35
83	54763	2526.91325927699	51
83	54810	2531.015586847933	40
83	54899	2538.916158209328	78
83	54922	2540.817807716851	18
83	55135	2548.9	49
83	55280	2553.5	45
83	55348	2555.503679732664	19
83	55420	2557.704994959707	21
83	55489	2559.80583483124	20
83	55573	2562.407245606527	25
83	55643	2564.607406603454	21
83	55748	2572.9	49
83	55859	2582.9	99
83	55921	2588.305344846472	53
83	55959	2591.710931144899	33
83	56006	2595.811347405181	40
83	56044	2599.020339941854	31
83	56071	2601.327593880876	22
83	56109	2604.532974983226	31
83	56156	2608.641296973778	40
83	56299	2616.9	49
83	56320	2617.9	9
83	56400	2621.500762332451	35
83	56445	2624.301313861085	27
83	56521	2631.109585522113	67
83	56565	2634.912977015883	37
83	56605	2638.313493626799	33
83	56636	2641.017497050861	26
83	56652	2642.218987104844	11
83	56696	2646.026796714386	37
83	56751	2650.934394187468	48
83	56789	2654.139651027351	31
83	57056	2668.6	106
83	57098	2671.8	31
83	57117	2673.305139676372	14
83	57134	2674.607219090077	12
83	57168	2677.609098980428	29
83	57238	2683.818038627557	61
83	57259	2685.520070933744	16
83	57283	2687.524371736268	19
83	57323	2690.93045567647	33
83	57401	2697.930696798783	69
83	57441	2701.331357368127	33
83	57457	2702.534919143834	11
83	57490	2705.442643476671	28
83	57627	2713.4	54
83	57655	2715.9	24
83	57689	2718.702415897608	27
83	57710	2720.411697045359	16
83	57763	2725.114229351905	46
83	57788	2727.215907538394	20
83	57823	2730.122119568123	28
83	57847	2732.127179709114	19
83	57909	2737.2	12
83	58083	2745.2	79
83	58255	2753.209234795484	79
83	58321	2757.2110694375	39
83	58364	2760.917314374478	36
83	58409	2764.819816409985	38
83	58441	2767.622001137309	27
83	58473	2770.228156960005	25
83	58490	2771.734242568094	14
83	58520	2774.138334282837	23
83	58572	2778.743796235779	45
83	58723	2787.4	54
83	58886	2794.9	74
83	58972	2798.807228754721	38
83	59002	2800.112939420192	12
83	59078	2803.715369855587	35
83	59155	2808.025183807232	42
83	59215	2813.431901827494	53
83	59232	2814.740451928577	12
83	59256	2816.743407455726	19
83	59269	2817.849134895272	10
83	59363	2826.054939091295	81
83	59400	2831.9	19
83	59438	2835.2	32
83	59477	2838.503956055853	32
83	59519	2842.113039674232	35
83	59559	2845.720091125901	35
83	59571	2846.52467167625	7
83	59597	2848.726498621201	21
83	59689	2859.1	71
83	59710	2860.9	17
83	59736	2863.108948556378	21
83	59783	2867.213435789744	40
83	59839	2872.014483604167	47
83	59922	2879.521533385728	74
83	60004	2886.727100894105	71
83	60087	2894.03568405791	72
83	60123	2897.238152830508	31
83	60180	2902.145829876521	48
83	60397	2914.3	83
83	60450	2916.8	24
83	60486	2918.408914213806	15
83	60586	2926.810104669471	83
83	60602	2928.019632876099	11
83	60629	2930.322976703597	22
83	60665	2933.525426665264	31
83	60684	2935.025751221756	14
83	60728	2938.832940319628	37
83	60750	2940.63839747628	17
83	60800	2945.043493150074	43
83	60826	2947.24399465291	21
83	60853	2951	10
83	60858	2951.4	3
83	60920	2956.804730466972	53
83	60965	2960.714085916294	38
83	61026	2966.021820253521	52
83	61088	2971.631164655984	55
83	61130	2975.231676448698	35
83	61172	2978.84075644826	35
83	61198	2981.044392491827	21
83	61290	2991	70
83	61356	2996.9	58
83	61396	3000.302358230538	33
83	61444	3004.510130084286	41
83	61492	3008.710914325819	41
83	61539	3012.816761499184	40
83	61586	3016.920152411662	40
83	61624	3020.12569114385	31
83	61706	3030	60
83	61768	3035.7	56
83	61834	3041.505579181239	57
83	61855	3043.213642031997	16
83	61915	3048.414420879536	51
83	61953	3051.814813324056	33
83	62011	3056.815039813822	49
83	62078	3062.715968282798	58
83	62123	3066.623000077705	38
83	62176	3071.326530427173	46
83	62196	3072.934831045527	15
83	62290	3083.2	72
83	62301	3084	7
83	62311	3084.808613032519	7
83	62358	3088.909313270463	40
83	62375	3090.218891254525	12
83	62407	3093.02015191652	27
83	62422	3094.126870559362	10
83	62469	3101	30
83	62526	3106	49
83	62566	3109.604081931465	35
83	62630	3115.206089825536	55
83	62696	3121.008171134359	57
83	62739	3124.711083312601	36
83	62770	3127.416222093552	26
83	62783	3128.325373686975	8
83	62840	3133.429198225468	50
83	62858	3134.831251523943	13
83	62918	3140.038622125625	51
83	62999	3147.344127204455	72
83	63083	3156.1	61
83	63109	3158.4	22
83	63140	3161.100247520676	26
83	63161	3162.800284821362	16
83	63200	3166.108055940113	32
83	63246	3170.113465904373	39
83	63293	3174.217969546912	40
83	63304	3175.127623535017	8
83	63351	3179.232225864687	40
83	63437	3186.83770010637	75
83	63489	3191.43835204701	45
83	63575	3199.045896673501	75
83	63669	3207.448261826646	83
83	63889	3215.2	52
83	64019	3219.3	40
83	64186	3224.409799474407	50
83	64227	3225.61676384548	11
83	64387	3231.920304235513	62
83	64453	3234.824227140054	28
83	64514	3237.531261100042	26
83	64681	3246.137654271527	85
83	64777	3254.738617214354	85
83	64829	3259.339471741363	45
83	65034	3269.8	78
83	65087	3272.2	23
83	65241	3279.405146522542	71
83	65261	3280.208056655762	7
83	65323	3283.009276371815	27
83	65375	3285.313437325421	22
83	65445	3288.322660949993	29
83	65547	3293.02562602813	46
83	65758	3301.1	51
83	65810	3304	28
83	65867	3309.109018946064	50
83	65898	3311.815005684271	26
83	65945	3315.921028180182	40
83	65973	3318.126713481572	21
83	65981	3318.728838100622	5
83	65995	3319.934639962306	11
83	66029	3322.735706441888	27
83	66062	3325.642848045252	28
83	66212	3340.1	121
83	66281	3346.3	61
83	66309	3348.701279344731	23
83	66323	3349.903819529844	11
83	66351	3352.110189194918	21
83	66424	3358.613471214122	64
83	66459	3361.717243668937	30
83	66492	3364.41877839055	26
83	66515	3366.328018432421	18
83	66547	3369.134082919632	27
83	66670	3381.7	97
83	66743	3388.1	63
83	66776	3391.004514747173	28
83	66809	3393.911983362275	28
83	66869	3399.118201198737	51
83	66904	3402.026042873224	28
83	66937	3404.930170809112	28
83	67002	3412.6	46
83	67089	3420.4	77
83	67143	3425.205428756051	47
83	67235	3433.409522972085	81
83	67285	3437.817239724096	43
83	67338	3442.324765727507	44
83	67394	3447.326037493079	49
83	67439	3451.232524454142	38
83	67478	3456.1	21
83	67522	3460	38
83	67562	3463.600705996102	35
83	67627	3469.305159640447	56
83	67674	3473.40679995387	40
83	67737	3478.914298742542	54
83	67785	3483.119141141653	41
83	67824	3486.423091559677	32
83	67874	3490.827246107742	43
83	67962	3500.4	64
83	67968	3500.9	4
83	68006	3504.100089550211	31
83	68033	3506.407982513398	22
83	68098	3512.112481087805	56
83	68144	3516.121268058428	39
83	68361	3528.4	84
83	68508	3535.3	68
83	68539	3536.708825470418	13
83	68656	3547.21432533648	104
83	68678	3549.016235091757	17
83	68733	3553.920377985707	48
83	68778	3557.822819806234	38
83	68860	3565.032237647039	71
83	68896	3568.038464482587	29
83	68941	3574.5	25
83	68991	3579	44
83	69019	3581.40240930391	23
83	69107	3589.211965874589	77
83	69172	3594.918190648969	56
83	69231	3600.019122192036	50
83	69292	3605.526867162576	54
83	69346	3610.12867978431	45
83	69413	3616.032801437209	58
83	69447	3619.039099382435	29
83	69525	3627.8	58
83	69559	3630.7	28
83	69592	3633.607101753409	28
83	69666	3640.011557217844	63
83	69769	3649.312753434712	92
83	69791	3651.114190133644	17
83	69815	3653.116249048804	19
83	69844	3655.623232008394	24
83	69875	3658.126275658349	24
83	69914	3661.635391400393	34
83	69960	3665.637377892203	39
83	69982	3667.439755390771	17
83	70031	3672.9	29
83	70084	3677.7	47
83	70130	3681.70122479662	39
83	70149	3683.210885065115	14
83	70205	3688.017520160899	47
83	70222	3689.526831230465	14
83	70232	3690.136109001119	5
83	70268	3693.342408205433	31
83	70311	3697.04756081408	36
83	70366	3701.949540636365	48
83	70410	3706.4	24
83	70437	3708.8	23
83	70458	3710.509652832953	16
83	70495	3713.815248443003	32
83	70529	3716.618843911656	27
83	70574	3720.522230035916	38
83	70618	3724.327569315731	37
83	70699	3734	60
83	70749	3738.5	44
83	70786	3741.809139887259	32
83	70832	3745.813171890032	39
83	70868	3748.814454115776	29
83	70902	3751.816097840415	29
83	70919	3753.120109585595	12
83	70953	3757.9	19
83	71018	3763.7	57
83	71054	3766.7061512162	29
83	71094	3770.106888076981	33
83	71153	3775.410962206387	52
83	71171	3776.819463506574	13
83	71202	3779.525728357217	26
83	71256	3785.7	37
83	71307	3790.1	43
83	71344	3793.400409790729	32
83	71388	3797.205125156501	37
83	71429	3800.708428675201	34
83	71473	3804.508618648077	37
83	71514	3808.008805465157	34
83	71707	3819.3	73
83	71844	3825.6	62
83	71966	3831.106985292439	54
83	72082	3836.514955290336	53
83	72205	3843.622627892232	70
83	72266	3848.928598521534	52
83	72316	3853.331938676862	43
83	72363	3857.436511561851	40
83	72413	3861.841862574696	43
83	72455	3865.442390213326	35
83	72524	3871.546055267505	60
83	72577	3876.055133955409	44
83	72736	3886.4	64
83	72785	3890.8	43
83	72816	3893.504807110738	26
83	72859	3897.21378940201	36
83	72912	3901.917700989123	46
83	72965	3906.422072884405	44
83	73011	3910.423576865831	39
83	73089	3917.424700275877	69
83	73140	3921.93029357262	44
83	73175	3924.833373560077	28
83	73187	3925.836289341412	9
83	73209	3927.645541404366	17
83	73256	3931.754701843752	40
83	73313	3936.65538054898	48
83	73362	3940.95718933051	42
83	73454	3947.7	37
83	73473	3949.3	15
83	73582	3959.004933589266	96
83	73644	3964.405238550202	53
83	73762	3975.005259014551	105
83	73811	3979.309454573666	42
83	73940	3987.2	52
83	74009	3993.4	61
83	74058	3997.707303787712	42
83	74097	4001.016241302248	32
83	74176	4009.7	57
83	74205	4012.1	23
83	74245	4015.704620272086	35
83	74288	4019.412885565987	36
83	74325	4022.518872500316	30
83	74347	4024.321301403048	17
83	74383	4027.522492026507	31
83	74424	4031.02950616253	34
83	74462	4034.229554107332	31
83	74491	4036.73805241142	24
83	74564	4045.1	51
83	74602	4048.4	32
83	74641	4051.9018472	34
83	74684	4055.602028686294	36
83	74711	4057.911160666103	22
83	74741	4060.311280211248	23
83	74824	4067.814295794156	74
83	74846	4069.614436548191	17
83	74938	4078.8	68
83	75003	4084.6	57
83	75047	4088.404152562429	37
83	75084	4091.706477395684	32
83	75109	4093.810633903785	20
83	75174	4099.511523443021	56
83	75228	4104.118934136678	45
83	75243	4105.423500387738	12
83	75262	4106.928874855392	14
83	75327	4112.633220258107	56
83	75402	4119.33817166715	66
83	75420	4120.740190800617	13
83	75450	4125.4	14
83	75492	4129.1	36
83	75536	4132.902484229016	37
83	75581	4136.809614058704	38
83	75649	4142.817030562645	59
83	75669	4144.423739641821	15
83	75696	4146.733139060595	22
83	75748	4151.333141924281	45
83	75796	4155.538085745238	41
83	75893	4164.038134185998	84
83	75936	4167.946548254546	38
83	75964	4170.147827174172	21
83	76013	4174.456553974621	42
83	76036	4176.357563484875	18
83	76090	4181.161639573872	47
83	76131	4184.664199877243	34
83	76175	4188.466632483349	37
83	76220	4194.6	26
83	76351	4206.4	117
83	76397	4210.403225471728	39
83	76422	4212.509797474212	20
83	76435	4213.617908731825	10
83	76462	4215.923804761607	22
83	76495	4218.629325478433	26
83	76514	4220.136168911002	14
83	76548	4223.140921929859	29
83	76595	4227.241277082905	40
83	76662	4234.5	45
83	76673	4235.5	9
83	76766	4243.804559776026	82
83	76843	4250.508728908467	66
83	76864	4252.211263080503	16
83	76890	4254.420924934591	21
83	76958	4260.424620590428	59
83	76990	4263.226140455295	27
83	77049	4268.331171837566	50
83	77071	4270.13738866969	17
83	77166	4281.2	72
83	77180	4282.3	10
83	77212	4285.107011831614	27
83	77241	4287.612610120337	24
83	77282	4291.122417644652	34
83	77309	4293.428282626206	22
83	77372	4298.929151653812	54
83	77454	4308.1	61
83	77486	4311	28
83	77509	4312.906541280983	18
83	77527	4314.315242034673	13
83	77564	4317.616060367083	32
83	77599	4320.518513382727	28
83	77662	4326.021701367912	54
83	77690	4331	10
83	77733	4334.8	37
83	77745	4335.809038879971	9
83	77753	4336.21782697176	3
83	77758	4336.523832032507	2
83	77789	4339.228480839397	26
83	77825	4342.23051940239	29
83	77877	4346.838086631502	45
83	77890	4347.942825169629	10
83	77925	4350.850102410349	28
83	77959	4353.855630501881	29
83	77989	4356.258785167322	23
83	78107	4369.2	92
83	78164	4374.2	49
83	78182	4375.809617549621	15
83	78210	4378.011253166929	21
83	78241	4380.716545988897	26
83	78270	4383.219544427218	24
83	78300	4385.828182936031	25
83	78359	4392	40
83	78375	4393.5	14
83	78425	4397.903069414126	43
83	78449	4399.903100435405	19
83	78477	4402.109445892082	21
83	78488	4403.015055422702	8
83	78518	4405.619873320651	25
83	78547	4409.4	14
83	78592	4413.4	39
83	78620	4415.803115279485	23
83	78679	4420.904853355748	50
83	78716	4424.009201709261	30
83	78754	4427.412737857544	33
83	78801	4431.522126931355	40
83	78840	4436.2	22
83	78864	4438.3	20
83	78885	4440.009643646904	16
83	78936	4444.516448721235	44
83	78993	4449.626119707514	50
83	79038	4453.526168475661	38
83	79081	4457.235108818488	36
83	79180	4467.8	78
83	79217	4471	31
83	79263	4475.001657227119	39
83	79272	4475.707599611705	6
83	79364	4483.913812041959	81
83	79402	4487.116696874705	31
83	79455	4491.821329447183	46
83	79509	4496.424565742288	45
83	79521	4497.428340190108	9
83	79572	4501.93702603849	44
83	79639	4508.7	47
83	79684	4512.7	39
83	79737	4517.403608882294	46
83	79782	4521.309713952529	38
83	79819	4524.418623098967	30
83	79871	4529.024249304617	45
83	79952	4536.13151967826	70
83	79988	4539.331806839873	31
83	80034	4544.6	26
83	80063	4547.2	25
83	80097	4550.005254437227	27
83	80138	4553.71215870748	36
83	80169	4556.218510281533	24
83	80209	4559.823589213689	35
83	80238	4562.12976083695	22
83	80338	4573.9	79
83	80394	4578.8	48
83	80415	4580.501506241215	16
83	80470	4585.410689753864	48
83	80494	4587.413702890397	19
83	80510	4588.623030323974	11
83	80545	4591.723042466962	30
83	80579	4595.9	19
83	80621	4599.6	36
83	80653	4602.20763863269	25
83	80711	4607.410047351119	51
83	80799	4615.216887134522	77
83	80842	4618.917695019129	36
83	80912	4625.127681698324	61
83	81087	4634.4	64
83	81164	4638.6	41
83	81212	4642.809623011243	41
83	81263	4647.314639048464	44
83	81354	4655.416066646461	80
83	81426	4661.824709673117	63
83	81476	4666.034618316949	41
83	81517	4669.737803651031	36
83	81532	4670.840436128076	10
83	81580	4675.044853905633	41
83	81621	4678.547406780366	34
83	81666	4682.45617465123	38
83	81819	4691.5	55
83	81840	4692.4	8
83	81938	4696.900280540126	44
83	82016	4700.402732116302	34
83	82080	4703.312569960743	28
83	82127	4706.521278082396	31
83	82158	4709.229015176529	26
83	82204	4713.232538297905	39
83	82305	4718.9	29
83	82348	4720.9	19
83	82488	4727.307866905147	63
83	82574	4731.31694796261	39
83	82680	4736.121808219271	47
83	82728	4738.223517285378	20
83	82774	4740.328126787999	20
83	83052	4754.4	104
83	83090	4757.9	34
83	83129	4761.209876764181	32
83	83168	4764.516991812597	32
83	83224	4769.520646865906	49
83	83261	4772.621223083844	30
83	83327	4778.422918458792	57