version 2
run Join-42-20130429-12:50:29-17679
attr configname Join
attr datetime 20130429-12:50:29
attr experiment "\"Join\""
attr inifile omnetpp.ini
attr iterationvars $0=512
attr iterationvars2 "$0=512, $repetition=2"
attr measurement $0=512
attr network Network
attr processid 17679
attr repetition 2
attr replication #2
attr resultdir results
attr runnumber 42
attr seedset 42

vector 42  Network.dyn_peer[0]  lookupHopsSig:vector  ETV
42	1675	20	7
42	1692	21.505774862691	14
42	1705	22.408096989671	8
42	1720	23.711650614159	12
42	1730	24.320646359862	5
42	1752	26.124561180968	17
42	1764	27.128400093193	9
42	1787	30.5	5
42	1795	31.2	6
42	1803	31.802290253879	5
42	1816	32.708532633839	8
42	1827	33.61396112695	8
42	1836	34.115130107366	4
42	1855	35.819445388738	16
42	1867	36.62884370996	7
42	1889	38.432171867777	17
42	1901	39.438448948267	9
42	1916	40.545754439652	10
42	1945	45.1	11
42	1953	45.8	6
42	1963	46.407940251859	5
42	1973	47.216726542999	7
42	1991	48.622927270586	13
42	2005	49.82788150681	11
42	2017	50.633216117718	7
42	2027	51.44063072683	7
42	2040	52.349569652631	8
42	2050	53.155301161125	7
42	2068	54.563187133169	13
42	2077	55.273164059382	6
42	2082	55.574680808134	2
42	2094	56.382204839367	7
42	2108	57.492391864651	10
42	2113	57.794876756	2
42	2123	58.402662475395	5
42	2148	62.8	8
42	2163	64	11
42	2181	65.605698896844	15
42	2199	67.012839537611	13
42	2207	67.620464124452	5
42	2225	69.025403939267	13
42	2236	69.934171595638	8
42	2258	72.7	7
42	2281	74.7	19
42	2286	75.005364813534	2
42	2311	77.106471130945	20
42	2324	78.01025934657	8
42	2334	78.81872386946	7
42	2362	83	10
42	2380	84.5	14
42	2407	86.805022883447	22
42	2432	88.912995837129	20
42	2451	90.418394443505	14
42	2463	91.419893617751	9
42	2500	94.524757192619	30
42	2527	98.9	9
42	2547	100.6	16
42	2553	101.007200365366	3
42	2569	102.207322396101	11
42	2584	103.513733872455	12
42	2604	105.119718299457	15
42	2620	106.326657783901	11
42	2631	107.23231286734	8
42	2647	108.437740111727	11
42	2675	113.2	12
42	2687	114.1	8
42	2697	114.908267988308	7
42	2704	115.410083965427	4
42	2716	116.219674713372	7
42	2727	117.12875921898	8
42	2742	118.232184461524	10
42	2759	122.2	2
42	2777	123.9	16
42	2808	126.404620058047	24
42	2815	126.907499354199	4
42	2825	127.716972187579	7
42	2829	127.923121690222	1
42	2843	128.92465520421	9
42	2848	129.233773728312	2
42	2854	129.639636026649	3
42	2881	133	10
42	2898	134.4	13
42	2922	136.402560155317	19
42	2938	137.802741257133	13
42	2958	139.410002212944	15
42	2973	140.518723452052	10
42	2987	141.724653081058	11
42	2995	142.1339742639	3
42	3026	147.3	13
42	3042	148.6	12
42	3072	151.207900846311	25
42	3092	152.817125840174	15
42	3105	153.917356066178	10
42	3126	155.624428452488	16
42	3149	157.530942124656	18
42	3175	160.8	8
42	3178	161	1
42	3187	161.706067150516	6
42	3196	162.206756365896	4
42	3203	162.710997672652	4
42	3210	163.211770883293	4
42	3217	163.719135325706	4
42	3240	166.8	8
42	3261	168.6	17
42	3266	168.909106861972	2
42	3275	169.613615255728	6
42	3286	170.314843363538	6
42	3297	171.215975744009	8
42	3306	171.91833480429	6
42	3317	172.628183216313	6
42	3327	173.429838421412	7
42	3346	174.938227402292	14
42	3425	179.8	18
42	3452	180.9	10
42	3466	181.502273956206	5
42	3484	182.108186710534	5
42	3498	182.712176737591	5
42	3512	183.615969794603	8
42	3522	184.223412291143	5
42	3539	185.726764263562	14
42	3565	189	10
42	3570	189.4	3
42	3582	190.20603721535	7
42	3587	190.509372207077	2
42	3610	192.410514880052	18
42	3619	193.114496567026	6
42	3626	193.618641612872	4
42	3638	194.424015568892	7
42	3661	196.332650750287	18
42	3672	197.241849306405	8
42	3687	198.254542368619	9
42	3695	198.762668901852	4
42	3701	199.167477271638	3
42	3710	199.874852284052	6
42	3730	202.2	2
42	3742	203.3	10
42	3747	203.600328466729	2
42	3758	204.304852861847	6
42	3776	205.913980356525	15
42	3808	209.4	14
42	3817	210	5
42	3827	210.804983677729	7
42	3846	212.306638810916	14
42	3853	212.81082806542	4
42	3862	213.511166857	6
42	3873	214.220315316041	6
42	3885	215.223430047725	9
42	3894	215.927053986695	6
42	3926	218.534858943792	25
42	3934	219.140664827343	5
42	3943	219.843440699045	6
42	3964	222.4	4
42	3972	223.1	6
42	3980	223.706635373728	5
42	3989	224.211787110576	4
42	4000	225.113567470185	8
42	4008	225.723322883307	5
42	4034	227.932933586491	21
42	4083	230.5	5
42	4102	231.4	8
42	4156	233.600853496703	21
42	4190	235.005875446821	13
42	4206	235.611829296971	5
42	4226	236.412500061743	7
42	4252	237.516473242909	10
42	4302	239.620741131988	20
42	4328	240.729721674898	10
42	4358	242.73321554494	19
42	4369	243.637897863277	8
42	4393	246.6	6
42	4406	247.8	11
42	4415	248.304720669456	4
42	4429	249.513086317581	11
42	4443	250.518734728886	9
42	4464	252.224609264965	16
42	4481	253.725266351376	14
42	4502	255.42820679811	16
42	4518	256.635962074254	11
42	4538	258.24310266626	15
42	4552	259.4476355546	11
42	4562	260.052912031901	5
42	4587	262.158155934556	20
42	4612	264.263500493484	20
42	4621	264.96790812098	6
42	4652	269.4	14
42	4661	270	5
42	4677	271.407653562841	13
42	4692	272.509205965362	10
42	4702	273.310235780148	7
42	4721	274.812055061428	14
42	4726	275.115398689493	2
42	4734	275.724016545762	5
42	4753	277.22477157938	14
42	4775	279.034232733959	17
42	4781	279.441765196143	3
42	4803	282.4	4
42	4808	282.8	3
42	4815	283.306439995423	4
42	4826	284.011705780061	6
42	4838	285.015793121775	9
42	4852	286.023800619487	9
42	4860	286.624054483021	5
42	4878	290.3	3
42	4890	291.4	10
42	4913	293.308669937564	18
42	4930	294.615259177017	12
42	4942	295.619339021984	9
42	4952	296.219609981867	5
42	4969	297.725127207858	14
42	4983	298.727346929509	9
42	5028	304.5	25
42	5048	306.2	16
42	5067	307.905055078859	16
42	5087	309.505252184257	15
42	5102	310.611202674062	10
42	5113	311.512243759905	8
42	5126	312.41563647236	8
42	5134	313.023635633203	5
42	5144	313.829330068376	7
42	5173	316.131115514935	22
42	5198	320.7	7
42	5208	321.6	8
42	5217	322.107208130971	4
42	5224	322.60820254484	4
42	5233	323.3162556945	6
42	5246	324.218687416408	8
42	5255	324.928574704227	6
42	5276	328.6	6
42	5287	329.6	9
42	5305	331.008302198597	13
42	5324	332.517928691787	14
42	5330	332.921900527019	3
42	5335	333.231344624269	2
42	5340	333.538025475633	2
42	5350	334.139436294154	5
42	5355	334.441486137124	2
42	5370	335.745550060215	12
42	5401	339.4	14
42	5420	341	15
42	5439	342.500130019201	14
42	5459	344.106462426964	15
42	5476	345.607317512231	14
42	5490	346.614676558347	9
42	5498	347.216755420886	5
42	5503	347.525236701885	2
42	5521	348.925502023956	13
42	5539	350.228544147224	12
42	5557	351.837308587981	15
42	5571	352.843139003549	9
42	5591	354.449568259218	15
42	5620	359.3	13
42	5626	359.8	4
42	5639	360.708174435603	8
42	5647	361.314422048297	5
42	5655	361.917840221833	5
42	5676	363.621198880408	16
42	5691	364.723793114701	10
42	5705	365.932044188056	11
42	5728	368.5	5
42	5740	369.6	10
42	5752	370.402680636371	7
42	5757	370.710987181434	2
42	5767	371.517228670496	7
42	5779	372.320680591923	7
42	5800	374.024774708398	16
42	5833	376.932513053661	28
42	5883	381.5	15
42	5903	383.2	16
42	5927	385.202195105184	19
42	5946	386.711679638225	14
42	5965	388.221425110878	14
42	5982	389.72906116881	14
42	6002	391.336858756573	15
42	6021	392.838259888375	14
42	6037	394.039402267606	11
42	6056	395.748086947343	16
42	6081	397.853744713573	20
42	6099	399.258619025535	13
42	6121	401.068472698651	17
42	6138	402.377418220915	12
42	6158	406.3	3
42	6181	408.3	19
42	6188	408.804847783709	4
42	6211	410.705072476795	18
42	6228	412.010197053371	12
42	6241	413.112883826939	10
42	6257	414.320300696359	11
42	6270	415.425717038469	10
42	6284	416.432705496955	9
42	6294	417.239040279151	7
42	6321	421.1	11
42	6330	421.9	7
42	6336	422.106450541664	1
42	6344	422.714799844023	5
42	6351	423.219016883325	4
42	6359	423.828860905129	5
42	6376	425.130183667259	12
42	6393	426.435440569073	12
42	6423	431.4	14
42	6440	432.8	13
42	6447	433.306831838572	4
42	6459	434.107015745299	7
42	6473	435.315241584001	11
42	6491	436.724384572066	13
42	6514	438.629681188915	18
42	6543	443.4	14
42	6575	446.1	26
42	6588	447.202740552213	10
42	6601	448.008954086205	7
42	6612	448.913006567046	8
42	6623	449.819520770948	8
42	6648	452.7	7
42	6664	454	12
42	6674	454.801065787347	7
42	6681	455.301175745644	4
42	6685	455.502575931069	1
42	6700	456.603944787396	10
42	6714	457.806581625415	11
42	6738	459.815581811869	19
42	6759	461.518246795807	16
42	6775	462.726985696539	11
42	6788	463.834307542339	10
42	6798	464.440281673358	5
42	6820	466.242788979921	17
42	6854	471.6	16
42	6869	472.8	11
42	6885	474.001753712757	11
42	6899	475.207486656491	11
42	6917	476.616630775915	13
42	6930	477.725011845552	10
42	6951	479.429199550828	16
42	6958	479.933243365861	4
42	6973	481.037074751148	10
42	6999	484.8	8
42	7002	485	1
42	7011	485.703538713755	6
42	7022	486.405201547434	6
42	7032	487.214787819201	7
42	7038	487.622168155374	3
42	7050	488.424011864574	7
42	7073	492.8	8
42	7093	494.5	16
42	7109	495.902453491149	13
42	7136	498.003135988238	20
42	7153	499.507028944362	14
42	7190	502.61539973427	30
42	7215	506.7	7
42	7223	507.4	6
42	7229	507.807190459035	3
42	7252	509.714405787684	18
42	7266	510.717377004808	9
42	7299	515.5	15
42	7309	516.2	6
42	7324	517.503966493732	12
42	7335	518.210603205347	6
42	7344	518.920144074696	6
42	7373	521.429512372128	24
42	7380	521.930862384896	4
42	7391	522.638188105841	6
42	7403	523.643025655297	9
42	7416	524.545175059062	8
42	7426	525.347874171341	7
42	7443	526.648186002658	12
42	7470	530.9	9
42	7481	531.9	9
42	7502	533.608415296643	16
42	7512	534.208929554738	5
42	7524	535.217393633231	9
42	7537	536.122357295699	8
42	7544	536.631909658842	4
42	7554	537.437878087347	7
42	7568	538.439424808754	9
42	7600	543.6	16
42	7616	544.9	12
42	7628	545.901065982552	9
42	7651	547.804509819885	18
42	7661	548.405261197694	5
42	7670	549.108776599267	6
42	7679	549.816058486835	6
42	7702	551.720186422304	18
42	7712	552.325141335469	5
42	7722	553.132190590979	7
42	7730	553.739074614921	5
42	7751	555.445057475487	16
42	7778	558.9	9
42	7788	559.8	8
42	7806	561.208191023175	13
42	7821	562.308968676595	10
42	7857	567.8	18
42	7874	569.2	13
42	7892	570.602721451439	13
42	7915	572.502773989592	18
42	7930	573.808676296255	12
42	7946	575.009707233713	11
42	7964	576.4133169727	13
42	7981	577.91646293827	14
42	8016	581.9	19
42	8033	583.3	13
42	8050	584.601368186315	12
42	8059	585.309268321869	6
42	8075	586.518770695376	11
42	8085	587.325676297723	7
42	8107	589.130136355464	17
42	8129	590.935349362161	17
42	8151	592.737200691475	17
42	8168	594.038067743578	12
42	8177	594.743486753047	6
42	8195	596.153068460946	13
42	8213	597.761797919301	15
42	8237	600.7	7
42	8247	601.6	8
42	8258	602.307590358443	6
42	8269	603.214178192107	8
42	8277	603.821419225357	5
42	8288	604.528341991003	6
42	8319	609.3	13
42	8330	610.1	7
42	8347	611.609033638129	14
42	8360	612.513927887773	8
42	8376	613.920394536973	13
42	8389	614.822606631372	8
42	8411	616.629538383473	17
42	8454	622.3	23
42	8459	622.7	3
42	8477	624.100394268142	13
42	8488	625.000835922538	8
42	8513	628.7	7
42	8517	629	2
42	8522	629.301805753461	2
42	8535	630.207363819291	8
42	8545	631.013043271607	7
42	8551	631.417775372768	3
42	8575	633.426930255778	19
42	8581	633.830058804354	3
42	8592	634.530398264161	6
42	8597	634.831603489929	2
42	8604	635.338577692593	4
42	8615	636.045887929299	6
42	8620	636.348861419377	2
42	8653	641.6	16
42	8671	643.1	14
42	8687	644.304217626587	11
42	8699	645.31366029147	9
42	8726	647.621613709879	22
42	8748	649.426355852029	17
42	8764	650.633806497515	11
42	8777	651.742426924088	10
42	8791	652.742975750215	9
42	8808	654.05142124418	12
42	8837	659.1	11
42	8846	659.9	7
42	8857	660.606445466517	6
42	8871	661.806815542852	11
42	8882	662.513317216342	6
42	8897	663.819279915169	12
42	8905	664.222926887699	3
42	8913	664.825226976034	5
42	8922	665.53083374799	6
42	8932	666.132039416874	5
42	8958	668.336850035734	21
42	8999	674.1	21
42	9015	675.6	14
42	9028	676.503398749621	8
42	9034	676.907809071242	3
42	9043	677.615056738978	6
42	9054	678.319101593521	6
42	9062	678.919755156911	5
42	9069	679.425479434495	4
42	9079	680.028632337846	5
42	9105	684.9	9
42	9108	685.1	1
42	9116	685.706616551775	5
42	9141	687.809804076805	20
42	9152	688.517182634455	6
42	9168	689.92344154822	13
42	9187	691.428643229252	14
42	9205	692.837503006737	13
42	9222	694.141771177285	12
42	9241	698.3	3
42	9255	699.6	12
42	9272	700.900244007832	12
42	9287	702.004863436277	10
42	9299	703.013564424963	9
42	9313	704.023467838097	9
42	9320	704.523680532273	4
42	9327	705.023682907504	4
42	9352	708.7	7
42	9364	709.8	10
42	9374	710.409390676987	5
42	9381	710.918716576093	4
42	9387	711.32670440845	3
42	9414	714.9	9
42	9424	715.8	8
42	9441	717.100526838367	12
42	9457	718.308198721317	11
42	9465	718.90908415543	5
42	9477	719.913103464628	9
42	9491	720.913479432391	9
42	9503	721.918278188604	9
42	9517	722.923076001851	9
42	9535	724.329351056495	13
42	9557	728.6	6
42	9578	730.4	17
42	9594	731.803982873838	13
42	9604	732.41166560799	5
42	9623	736.1	1
42	9639	737.6	14
42	9658	739.105225191905	14
42	9676	740.512601014875	13
42	9689	741.619923732929	10
42	9720	744.122311504453	24
42	9748	746.522344968102	23
42	9757	747.223449709203	6
42	9771	748.228122816869	9
42	9783	749.231669038453	9
42	9795	750.034639067249	7
42	9814	754.3	3
42	9823	755.1	7
42	9846	757.002336077534	18
42	9852	757.408227162884	3
42	9863	758.108648094815	6
42	9874	759.011420751305	8
42	9895	760.711599490584	16
42	9912	764.2	2
42	9918	764.7	4
42	9929	765.60109467599	8
42	9942	766.504937942469	8
42	9964	768.308854243879	17
42	9982	769.91565071675	15
42	10004	771.716895092313	17
42	10033	775.1	11
42	10047	776.2	10
42	10055	776.80786345019	5
42	10064	777.510453276708	6
42	10074	778.11134738671	5
42	10084	778.917232929031	7
42	10100	780.121408736727	11
42	10104	780.331232041826	1
42	10113	781.040023224889	6
42	10119	781.448865214669	3
42	10132	782.358312534877	8
42	10148	783.76432051936	13
42	10156	784.168994534428	3
42	10169	785.278031774121	10
42	10192	788.6	6
42	10205	789.8	11
42	10217	790.6099116863	7
42	10232	791.910561550384	12
42	10248	793.112878267428	11
42	10268	794.716894069738	15
42	10277	795.426321387461	6
42	10289	796.23469964483	7
42	10301	797.241196111372	9
42	10316	798.343501803333	10
42	10325	799.049579171266	6
42	10335	799.857885596447	7
42	10361	802.8	8
42	10371	803.7	8
42	10378	804.001765280293	2
42	10390	805.005606186447	9
42	10400	805.807811048593	7
42	10413	806.708178367972	8
42	10433	808.310042750559	15
42	10443	809.119615453188	7
42	10451	809.727411297866	5
42	10464	810.635673354851	8
42	10473	811.339174607394	6
42	10481	811.94718230427	5
42	10489	812.347760730998	3
42	10517	817.1	11
42	10525	817.8	6
42	10553	820.005182603616	21
42	10563	820.814460126408	7
42	10583	822.420432867102	15
42	10662	827.9	19
42	10681	828.6	6
42	10695	829.204911863396	5
42	10705	829.511872069569	2
42	10721	830.013411028619	4
42	10735	830.521569359906	4
42	10745	830.923813765589	3
42	10769	831.930043139429	9
42	10785	832.537521855495	5
42	10796	833.042891599753	4
42	10805	833.748820999053	6
42	10826	835.457770213429	16
42	10857	839.3	13
42	10861	839.6	2
42	10871	840.208774608615	5
42	10886	841.512686306309	12
42	10891	841.815342306719	2
42	10906	842.918071900518	10
42	10916	843.719367049758	7
42	10947	847.6	16
42	10971	849.7	20
42	10990	851.208521935271	14
42	11008	852.617143211466	13
42	11026	854.01749743511	13
42	11047	855.925592595851	18
42	11065	857.328883109488	13
42	11089	860.9	9
42	11115	863.2	22
42	11121	863.600869867638	3
42	11137	864.803683777215	11
42	11146	865.50776830938	6
42	11152	865.910294800354	3
42	11167	867.014021685556	10
42	11223	870.7	7
42	11238	871.5	7
42	11250	872.309621219718	7
42	11259	873.011823051792	6
42	11266	873.512917740376	4
42	11281	874.619750327973	10
42	11295	875.828695127339	11
42	11311	877.029456435869	11
42	11321	877.839371189184	7
42	11333	878.548498428622	6
42	11347	879.753449893842	11
42	11359	880.562278956525	7
42	11381	884.5	5
42	11387	885	4
42	11403	886.208246809674	11
42	11410	886.713959999071	4
42	11421	887.617438091154	8
42	11436	888.72405921122	10
42	11443	889.230839372707	4
42	11456	890.136277161761	8
42	11467	891.041934481397	8
42	11496	895.3	13
42	11511	896.5	11
42	11519	897.105212603115	5
42	11524	897.413186863308	2
42	11530	897.821868471334	3
42	11538	898.228452989678	3
42	11543	898.530905845	2
42	11554	899.439411662279	8
42	11572	900.840985068871	13
42	11643	905.2	12
42	11650	905.5	2
42	11680	907.501058340899	19
42	11694	908.508048248283	9
42	11706	909.515575414676	9
42	11717	910.217467630124	6
42	11733	911.619053681125	13
42	11749	912.827870052396	11
42	11756	913.336678759939	4
42	11767	914.046291912783	6
42	11772	914.355010348083	2
42	11788	915.759665048224	13
42	11816	919	10
42	11824	919.7	6
42	11832	920.101288698634	3
42	11849	921.609488167855	14
42	11865	922.812839356403	11
42	11891	926.8	8
42	11910	928.4	15
42	11926	929.800011201093	13
42	11933	930.108190871299	2
42	11944	931.013752688589	8
42	11964	932.622074030342	15
42	11993	937.1	11
42	12011	938.501931328626	13
42	12015	938.704801710023	1
42	12019	938.905642692249	1
42	12025	939.311811961438	3
42	12029	939.51507629719	1
42	12033	939.724888158965	1
42	12045	940.530486602059	7
42	12055	941.336804737357	7
42	12076	943.037963175921	16
42	12106	947.2	12
42	12113	947.8	5
42	12120	948.105399853789	2
42	12127	948.613586647963	4
42	12135	949.221385101909	5
42	12147	950.022669589116	7
42	12159	951.023739395494	9
42	12190	955.6	16
42	12213	957.6	19
42	12235	959.404322407785	17
42	12249	960.413952327833	9
42	12261	961.422353542837	9
42	12267	961.825772264538	3
42	12276	962.329693776668	4
42	12285	963.036019995648	6
42	12293	963.637814968845	5
42	12310	964.947135249911	12
42	12319	965.654672238253	6
42	12328	966.155697335539	4
42	12356	968.563585405336	23
42	12382	972.8	8
42	12397	974	11
42	12408	974.90067837056	8
42	12429	976.610151349427	16
42	12449	978.213160985144	15
42	12475	980.414824761032	21
42	12480	980.721906481898	2
42	12501	982.429616324843	16
42	12535	987.6	16
42	12552	989	13
42	12561	989.703458830565	6
42	12569	990.104038035173	3
42	12578	990.810247190403	6
42	12586	991.41099413463	5
42	12598	992.211451554965	7
42	12609	993.119975701531	8
42	12622	994.028691069558	8
42	12639	995.538592553243	14
42	12652	996.448327442956	8
42	12663	997.355087965488	8
42	12713	1000.6	6
42	12730	1001.8	11
42	12745	1002.907582631995	10
42	12757	1003.911418754622	9
42	12765	1004.311664623795	3
42	12779	1005.512320885304	11
42	12791	1006.312542120781	7
42	12828	1011.9	19
42	12844	1013.2	12
42	12857	1014.108187856448	8
42	12872	1015.415891930649	12
42	12886	1016.418417018118	9
42	12900	1017.625249971942	11
42	12933	1021.5	15
42	12952	1023.1	15
42	12959	1023.604685394095	4
42	12972	1024.514656639091	8
42	12982	1025.324099675415	7
42	13007	1028.7	7
42	13012	1029.1	3
42	13022	1029.901636238186	7
42	13039	1031.206906479121	12
42	13055	1032.414854574598	11
42	13069	1033.623113782269	11
42	13084	1034.730050604569	10
42	13097	1035.833034348885	10
42	13114	1037.135242044994	12
42	13135	1038.843641516706	16
42	13156	1042.3	3
42	13163	1042.9	5
42	13174	1043.806545112181	8
42	13190	1045.007858463448	11
42	13208	1046.410591058713	13
42	13225	1047.919271601872	14
42	13237	1048.728780237459	7
42	13246	1049.438412604049	6
42	13315	1053.4	14
42	13325	1053.8	3
42	13337	1054.606385259465	7
42	13342	1054.916030464202	2
42	13351	1055.620006408136	6
42	13365	1056.627607348941	9
42	13377	1057.630349500987	9
42	13396	1060.4	4
42	13399	1060.6	1
42	13404	1060.903207427395	2
42	13410	1061.31214841944	3
42	13421	1062.01939264616	6
42	13431	1062.821692192195	7
42	13435	1063.029150562301	1
42	13445	1063.831281609391	7
42	13456	1064.533285200828	6
42	13470	1065.733596541664	11
42	13486	1066.942277769787	11
42	13496	1067.748794438043	7
42	13526	1071.2	12
42	13540	1072.3	10
42	13549	1073.004715324591	6
42	13560	1073.909447423652	8
42	13577	1075.214879751698	12
42	13591	1076.224561685981	9
42	13596	1076.526154143412	2
42	13607	1077.428009398584	8
42	13614	1077.930046411067	4
42	13627	1078.838732642777	8
42	13640	1079.939644287688	10
42	13653	1080.847410256251	8
42	13658	1081.148946836591	2
42	13698	1086.1	21
42	13716	1087.8	16
42	13732	1089.007610239952	11
42	13746	1090.007788858844	9
42	13750	1090.214051062005	1
42	13811	1094.9	9
42	13836	1095.9	9
42	13866	1097.107965372905	11
42	13889	1098.312780596475	11
42	13901	1099.31395367835	9
42	13916	1100.419936951005	10
42	13924	1101.021188808919	5
42	13939	1102.127261873418	10
42	13954	1103.434117526297	12
42	13965	1104.136592925865	6
42	13984	1108.1	1
42	13998	1109.4	12
42	14012	1110.404915945511	9
42	14022	1111.206524200259	7
42	14035	1112.107166289651	8
42	14045	1112.913681484324	7
42	14060	1114.019501198367	10
42	14068	1114.622760453033	5
42	14094	1116.825450387079	21
42	14105	1117.73135302641	8
42	14119	1118.739328617437	9
42	14129	1119.543661084919	7
42	14153	1122.6	6
42	14178	1124.8	21
42	14201	1126.70011620538	18
42	14213	1127.704762191387	9
42	14242	1131.1	11
42	14263	1132.9	17
42	14274	1133.804799388304	8
42	14288	1134.81454638681	9
42	14296	1135.420546592307	5
42	14316	1137.027765468576	15
42	14335	1140.1	1
42	14348	1141.3	11
42	14362	1142.3086012239	9
42	14371	1143.018127710285	6
42	14385	1144.025926220117	9
42	14397	1145.035004406662	9
42	14412	1146.135400594877	10
42	14423	1147.042643447945	8
42	14447	1150.8	8
42	14455	1151.5	6
42	14474	1153.002420450188	14
42	14483	1153.703448374185	6
42	14499	1154.913315000131	11
42	14531	1159.4	14
42	14540	1160	5
42	14546	1160.404823563818	3
42	14555	1161.111005121194	6
42	14570	1162.213108617003	10
42	14584	1163.420133266726	11
42	14603	1164.92359343236	14
42	14629	1168.8	8
42	14651	1170.7	18
42	14661	1171.503264613139	7
42	14677	1172.703988775821	11
42	14691	1173.909165892217	11
42	14706	1175.01450831427	10
42	14714	1175.615386979195	5
42	14723	1176.124212314045	4
42	14731	1176.727718583378	5
42	14743	1177.728543668787	9
42	14766	1180.5	5
42	14781	1181.9	13
42	14791	1182.503969232786	5
42	14799	1183.107190179812	5
42	14813	1184.108517337281	9
42	14823	1184.918292001113	7
42	14832	1185.623967409594	6
42	14840	1186.025976000499	3
42	14849	1186.732870650168	6
42	14876	1191	10
42	14886	1191.9	8
42	14906	1193.500411834961	15
42	14929	1195.402086660784	18
42	14948	1196.908790515385	14
42	14968	1198.509836193754	15
42	14975	1199.019351693466	4
42	15036	1202.9	9
42	15055	1203.8	8
42	15077	1204.706166045833	8
42	15088	1205.612295487611	8
42	15108	1207.217708451013	15
42	15121	1208.120696809842	8
42	15139	1209.727787415006	15
42	15158	1211.237139433119	14
42	15175	1212.545849124302	12
42	15202	1216.9	9
42	15207	1217.3	3
42	15215	1217.907834227278	5
42	15231	1219.111228729225	11
42	15239	1219.717351309055	5
42	15248	1220.225499560216	4
42	15259	1221.130343544755	8
42	15288	1225.4	14
42	15298	1226.1	6
42	15308	1226.905475923724	7
42	15317	1227.611450682301	6
42	15330	1228.51962366	8
42	15342	1229.527461985549	9
42	15366	1231.531985168416	19
42	15378	1232.336794206752	7
42	15396	1233.943229983705	15
42	15421	1236.7	7
42	15427	1237.2	4
42	15443	1238.404386072189	11
42	15454	1239.305202371978	8
42	15468	1240.312450637611	9
42	15493	1242.413054158455	20
42	15504	1243.318986944945	8
42	15517	1244.221457977287	8
42	15535	1245.827960919159	15
42	15565	1249.2	12
42	15577	1250.1	8
42	15590	1251.202192139907	10
42	15611	1252.905482314254	16
42	15628	1254.215240966828	12
42	15643	1255.51994279276	12
42	15665	1257.323311750629	17
42	15679	1258.232575720407	8
42	15713	1263.8	18
42	15720	1264.2	3
42	15739	1265.900436616612	16
42	15751	1266.705418573806	7
42	15759	1267.307035299231	5
42	15763	1267.512588934778	1
42	15774	1268.212797546128	6
42	15781	1268.719989563901	4
42	15790	1269.426522194118	6
42	15796	1269.828806741555	3
42	15808	1270.632129887743	7
42	15816	1271.242093226935	5
42	15825	1271.947518013273	6
42	15882	1274.7	7
42	15903	1275.6	8
42	15925	1276.400721984123	7
42	15955	1278.301028509199	18
42	15968	1279.403605338021	10
42	15981	1280.312009862063	8
42	15998	1281.816636091643	14
42	16004	1282.018378024981	1
42	16020	1283.427060750031	13
42	16026	1283.836668555538	3
42	16045	1285.343940246274	14
42	16066	1288.3	3
42	16093	1290.7	23
42	16099	1291.106287648165	3
42	16114	1292.117100501063	9
42	16126	1293.120810888661	9
42	16133	1293.628488127535	4
42	16168	1297.7	17
42	16180	1298.6	8
42	16192	1299.60867031496	9
42	16211	1301.113810273636	14
42	16226	1302.21959702775	10
42	16234	1302.825477611516	5
42	16246	1303.829863765712	9
42	16259	1304.730157710173	8
42	16270	1305.637410286794	8
42	16288	1307.041365438458	13
42	16311	1310.5	5
42	16322	1311.5	9
42	16336	1312.509007018583	9
42	16346	1313.316936579504	7
42	16357	1314.021153788735	6
42	16370	1315.127703882116	10
42	16380	1315.930472160035	7
42	16403	1318.8	8
42	16411	1319.5	6
42	16430	1321.003591510346	14
42	16447	1322.305698132233	12
42	16456	1323.009536603709	6
42	16465	1323.715766269537	6
42	16479	1324.720424397599	9
42	16486	1325.226739999753	4
42	16491	1325.535099980382	2
42	16507	1326.742431110621	11
42	16520	1327.84478903155	10
42	16528	1328.246104708348	3
42	16551	1332.6	6
42	16559	1333.3	6
42	16565	1333.70601855389	3
42	16576	1334.407815384982	6
42	16585	1335.114140790317	6
42	16594	1335.816516223564	6
42	16611	1337.120244709893	12
42	16620	1337.829958660825	6
42	16637	1339.135084812865	12
42	16651	1340.136894582412	9
42	16676	1342.241024894104	20
42	16776	1347.2	12
42	16803	1348	7
42	16846	1349.304453052538	12
42	16872	1350.109601226087	7
42	16884	1350.513193559787	3
42	16891	1350.719123068296	1
42	16905	1351.320075683377	5
42	16951	1354.9	9
42	16965	1356	10
42	16977	1357.002581334265	9
42	16991	1358.011161196759	9
42	16996	1358.317728563413	2
42	17002	1358.717818867439	3
42	17012	1359.521070768107	7
42	17025	1360.426954894382	8
42	17050	1362.53468962561	20
42	17057	1363.040676765426	4
42	17082	1366.7	7
42	17089	1367.3	5
42	17102	1368.204537895428	8
42	17113	1369.106884635862	8
42	17143	1371.709245140452	25
42	17156	1372.618082237164	8
42	17164	1373.218817204609	5
42	17176	1374.023237448383	7
42	17192	1375.424935027439	13
42	17205	1376.328243921065	8
42	17214	1377.033441660538	6
42	17230	1378.237929436316	11
42	17253	1380.141299468051	18
42	17260	1380.647993372029	4
42	17287	1384.9	9
42	17293	1385.4	4
42	17300	1385.902487142726	4
42	17307	1386.208365986407	2
42	17319	1387.214537436225	9
42	17331	1388.024023269746	7
42	17336	1388.331091041896	2
42	17353	1389.83361631976	14
42	17364	1390.535286738884	6
42	17386	1394.4	4
42	17390	1394.606055381544	1
42	17397	1395.113419401677	4
42	17418	1396.81698672219	16
42	17428	1397.623624767435	7
42	17437	1398.128959886678	4
42	17452	1399.433706195386	12
42	17463	1400.141524098658	6
42	17469	1400.549965803132	3
42	17474	1400.857019659066	2
42	17484	1401.665076360587	7
42	17494	1402.269540047062	5
42	17499	1402.575393590704	2
42	17522	1406.7	7
42	17542	1408.4	16
42	17563	1410.105399058447	16
42	17578	1411.406518254703	12
42	17588	1412.006860132386	5
42	17594	1412.409557628467	3
42	17615	1414.119424558296	16
42	17630	1415.41999542685	12
42	17649	1416.921225134914	14
42	17672	1420.5	5
42	17676	1420.8	2
42	17692	1422.000393435424	11
42	17702	1422.806793465083	7
42	17718	1424.008014564257	11
42	17722	1424.210261575997	1
42	17728	1424.614783566278	3
42	17736	1425.216583670592	5
42	17742	1425.625922420807	3
42	17751	1426.126807976686	4
42	17781	1431.4	14
42	17808	1433.8	23
42	17830	1435.600415728569	17
42	17857	1437.907297807242	22
42	17879	1439.708781239242	17
42	17890	1440.412755029097	6
42	17904	1441.622621330337	11
42	17932	1445	10
42	17941	1445.700173797898	6
42	17957	1446.90969191573	11
42	17965	1447.512923222308	5
42	17975	1448.119314421653	5
42	17986	1449.029045399134	8
42	17997	1449.937724582091	8
42	18011	1450.943525704368	9
42	18023	1451.948073102975	9
42	18059	1455.9	19
42	18074	1457.1	11
42	18090	1458.303426534882	11
42	18100	1459.110095177443	7
42	18110	1459.915417627332	7
42	18126	1461.116814139914	11
42	18135	1461.818071555081	6
42	18151	1463.018371291042	11
42	18167	1464.219698437624	11
42	18175	1464.822777737057	5
42	18187	1465.824213160669	9
42	18200	1466.731259968261	8
42	18213	1467.840658166204	10
42	18228	1468.942676700691	10
42	18235	1469.450005689887	4
42	18239	1469.656740014259	1
42	18271	1473.4	14
42	18282	1474.2	7
42	18322	1477.714034315935	34
42	18342	1479.220033456662	14
42	18419	1483.6	16
42	18438	1484.9	12
42	18453	1486.009446142225	10
42	18467	1487.213189109868	11
42	18486	1488.72002159017	14
42	18500	1489.920196750109	11
42	18516	1491.12516849777	11
42	18548	1495.4	14
42	18564	1496.7	12
42	18584	1498.308646088349	15
42	18590	1498.714352185774	3
42	18598	1499.322037379454	5
42	18605	1499.822341250068	4
42	18621	1501.023472348249	11
42	18632	1501.932781835161	8
42	18651	1503.440736938882	14
42	18675	1505.447632206354	19
42	18695	1508.2	2
42	18703	1508.9	6
42	18711	1509.509408753584	5
42	18726	1510.615997608259	10
42	18731	1510.924265997097	2
42	18743	1511.92820464115	9
42	18753	1512.534874356306	5
42	18772	1514.041386686042	14
42	18807	1519.7	17
42	18825	1521.2	14
42	18840	1522.30159287438	10
42	18853	1523.411587011632	10
42	18869	1524.617636550927	11
42	18877	1525.218118671303	5
42	18890	1526.121299786836	8
42	18902	1527.131071528632	9
42	18917	1528.239735915276	10
42	18927	1529.043804994827	7
42	18944	1530.353738364191	12
42	18972	1535.2	12
42	18988	1536.5	12
42	18996	1537.105670162616	5
42	19006	1537.908557018586	7
42	19037	1540.415941510689	24
42	19048	1541.317032606964	8
42	19063	1542.425817762535	10
42	19070	1542.932322878985	4
42	19075	1543.236364282209	2
42	19082	1543.744016190841	4
42	19091	1544.247286522417	4
42	19113	1548.6	6
42	19122	1549.4	7
42	19134	1550.209013756441	7
42	19150	1551.616636607762	13
42	19163	1552.52541551932	8
42	19176	1553.633393655803	10
42	19186	1554.236565612989	5
42	19194	1554.840921446114	5
42	19205	1555.749610452336	8
42	19212	1556.057788794493	2
42	19245	1561.7	17
42	19263	1563.2	14
42	19269	1563.606490746601	3
42	19288	1565.106548333237	14
42	19329	1568.609832145538	34
42	19337	1569.213078003822	5
42	19352	1570.319380091277	10
42	19382	1575.2	12
42	19396	1576.3	10
42	19406	1577.106954672085	7