version 2
run Join-94-20130429-13:05:50-17679
attr configname Join
attr datetime 20130429-13:05:50
attr experiment "\"Join\""
attr inifile omnetpp.ini
attr iterationvars $0=16384
attr iterationvars2 "$0=16384, $repetition=4"
attr measurement $0=16384
attr network Network
attr processid 17679
attr repetition 4
attr replication #4
attr resultdir results
attr runnumber 94
attr seedset 94

vector 94  Network.dyn_peer[0]  lookupHopsSig:vector  ETV
94	43455	21.10415798756	76
94	43498	24.80890827529	36
94	43560	30.214656341416	53
94	43621	35.719043170886	54
94	43657	38.72478580576	29
94	43711	43.532551943898	47
94	43743	46.136811043173	25
94	43894	59.839153713658	136
94	43995	69.7	77
94	44075	76.8	70
94	44152	83.707372099109	68
94	44227	90.209865171279	64
94	44366	102.712794544832	124
94	44451	110.219152075245	74
94	44536	117.926091423357	76
94	44616	124.932470380387	69
94	44643	127.238215334094	22
94	44693	133	30
94	44829	145.3	122
94	44898	151.400995374009	60
94	44932	154.205126561752	27
94	45024	162.405674172636	81
94	45047	164.310305525137	18
94	45074	166.610694540529	22
94	45102	169.011889441336	23
94	45191	176.920986334107	78
94	45221	179.521585357566	25
94	45266	183.427803117497	38
94	45290	185.434812817596	19
94	45402	195.440085335619	99
94	45575	204.3	63
94	45670	208.7	43
94	45798	214.605275947696	58
94	45978	222.906284118522	82
94	46098	228.415223437823	54
94	46194	232.822330747261	43
94	46250	235.431901246847	25
94	46410	244.2	62
94	46465	249.2	49
94	46546	256.300714241801	70
94	46571	258.403263248413	20
94	46653	265.808521279441	73
94	46738	273.317402323013	74
94	46789	277.824997909433	44
94	46865	284.431984711366	65
94	46908	288.138926245965	36
94	47041	296.6	46
94	47112	299.9	32
94	47214	304.606211182875	46
94	47319	309.812052604201	51
94	47406	317.521762735069	76
94	47507	326.429678505899	88
94	47529	328.233910696031	17
94	47563	333.9	19
94	47627	339.6	56
94	47695	345.609911071904	59
94	47826	357.315745501612	116
94	47865	360.619507728007	32
94	47896	363.324099972939	26
94	48006	373.129278661892	97
94	48102	383.2	72
94	48195	391.6	83
94	48258	397.10786823576	54
94	48299	400.616479584501	34
94	48345	404.626444532941	39
94	48385	408.03285166267	33
94	48453	414.03505767071	59
94	48472	415.74201822242	16
94	48563	424.9	69
94	48629	430.8	58
94	48743	441.003264213772	101
94	48807	446.607819755859	55
94	48870	452.112387985328	54
94	48919	456.413185361781	42
94	48983	462.0183687331	55
94	49079	470.626503725059	85
94	49106	472.929854299712	22
94	49323	494.3	183
94	49376	499.1	47
94	49457	506.20898694423	70
94	49532	512.909888080109	66
94	49607	519.619696193502	66
94	49662	524.323068217452	46
94	49705	528.025565214493	36
94	49770	533.926190764932	58
94	49868	542.530798582632	85
94	49925	549.7	37
94	49962	552.9	31
94	49990	555.303650827088	23
94	50017	557.608463752869	22
94	50081	563.214657805474	55
94	50152	569.514726633269	62
94	50191	572.814877342202	32
94	50279	582.7	67
94	50322	586.5	37
94	50353	589.209165457424	26
94	50401	593.417223031667	41
94	50425	595.424087389839	19
94	50450	597.533126561884	20
94	50517	603.436512965238	58
94	50674	611.7	57
94	50739	614.6	28
94	50921	623.204529170044	85
94	51033	628.208933283129	49
94	51129	632.614763729422	43
94	51209	636.2194182347	35
94	51265	640.228350509515	39
94	51305	643.835859386914	35
94	51371	650.6	46
94	51467	659.3	86
94	51606	671.803871006355	124
94	51656	676.013799715716	41
94	51730	682.616717263472	65
94	51771	686.124913489013	34
94	51812	689.829166762628	36
94	51886	696.235732633543	63
94	51935	700.535759101777	42
94	51998	706.036250068095	54
94	52058	711.445194785167	53
94	52171	721.553533429825	100
94	52248	728.259659851563	66
94	52585	745.9	139
94	52662	749.5	35
94	52716	751.906200438109	23
94	52794	755.511488612061	35
94	52866	758.820820013919	32
94	52964	763.325109549647	44
94	53326	780.22841411859	168
94	53484	787.73422641348	74
94	53649	798.937870374463	111
94	53702	803.640983315987	46
94	53768	809.444497922811	57
94	53835	815.354451630407	58
94	53916	822.45711166092	70
94	54058	837.6	116
94	54093	840.6	29
94	54118	842.708507719282	20
94	54164	846.709242627373	39
94	54229	852.411754776482	56
94	54266	855.717130018687	32
94	54407	869.3	113
94	54453	873.4	40
94	54585	885.203633102676	117
94	54609	887.208980835891	19
94	54648	890.51223397092	32
94	54699	895.016846760081	44
94	54744	898.925893793849	38
94	54782	902.133874169103	31
94	54829	906.241111525231	40
94	54903	915.4	54
94	54968	921.2	57
94	55032	926.805282459894	55
94	55098	932.608398019023	57
94	55151	937.317355973486	46
94	55206	942.022078206854	46
94	55270	947.825400121633	57
94	55428	963.1	131
94	55488	968.4	52
94	55536	972.607301779396	41
94	55590	977.412789825158	47
94	55661	983.720084407449	62
94	55748	991.429627627495	76
94	55797	995.737743987773	42
94	55827	998.147532117533	23
94	55879	1002.74939006428	45
94	55935	1007.751865617344	49
94	56176	1019.6	96
94	56215	1021.4	17
94	56277	1024.108831128252	26
94	56352	1027.618393362397	34
94	56407	1030.019966573069	23
94	56436	1031.328609713812	12
94	56462	1032.430565097201	10
94	56534	1037.23698277301	47
94	56613	1044.137488248255	68
94	56642	1046.642709867935	24
94	56685	1050.347525421783	36
94	56713	1052.748601765396	23
94	56735	1054.553192926168	17
94	56767	1057.358380528038	27
94	56843	1065.4	54
94	56898	1070.2	47
94	56923	1072.309554159399	20
94	56954	1075.012689449926	26
94	56962	1075.615713348071	5
94	56983	1077.3196793665	16
94	57016	1080.028740906096	26
94	57092	1089.7	57
94	57154	1095.2	54
94	57219	1100.900489380911	56
94	57251	1103.705620747135	27
94	57307	1108.512914698821	47
94	57358	1113.017910851187	44
94	57429	1119.322449817678	62
94	57518	1128.8	68
94	57564	1132.9	40
94	57658	1141.302114077245	83
94	57697	1144.602221527353	32
94	57775	1151.602288922848	69
94	57846	1157.90999889768	62
94	57883	1161.019893575176	30
94	57947	1166.620256882184	55
94	57997	1171.029476585793	43
94	58324	1192.2	182
94	58412	1200.1	78
94	58503	1208.208893623545	80
94	58613	1218.011118948	97
94	58684	1226.9	49
94	58730	1231	40
94	58749	1232.506790020805	14
94	58818	1238.613872481583	60
94	58837	1240.122493720425	14
94	58895	1245.325462202506	51
94	58928	1248.028721744613	26
94	58964	1251.235773231195	31
94	58987	1253.137885294823	18
94	59026	1256.442257443069	32
94	59131	1268	80
94	59146	1269.4	13
94	59204	1274.409984862336	49
94	59236	1277.217337014756	27
94	59266	1279.826576099674	25
94	59306	1283.235376572544	33
94	59336	1285.837759901569	25
94	59370	1288.639487372939	27
94	59437	1294.548610843892	58
94	59542	1306.1	81
94	59582	1309.8	36
94	59623	1313.302542392511	34
94	59666	1317.011413042337	36
94	59685	1318.51260069538	14
94	59750	1324.221514680218	56
94	59798	1328.429388458055	41
94	59840	1332.035559969687	35
94	59894	1336.838264844678	47
94	59934	1340.24792480966	33
94	59979	1344.152910786172	38
94	60069	1352.161588738335	79
94	60149	1359.363742239133	71
94	60183	1362.172103009982	27
94	60396	1374.3	83
94	60539	1381.1	67
94	60883	1397.105046712961	159
94	60975	1401.412140555437	42
94	61053	1404.913123852083	34
94	61127	1410.717295050608	57
94	61192	1416.422638727827	56
94	61338	1429.625041225231	131
94	61384	1433.631528122639	39
94	61399	1434.734826304518	10
94	61464	1440.43792038967	56
94	61522	1445.647412212466	51
94	61560	1448.848556139576	31
94	61611	1453.35647672187	44
94	61671	1458.566185654112	51
94	61771	1469.7	77
94	61801	1472.2	24
94	61829	1474.60319945205	23
94	61862	1477.505880849843	28
94	61893	1480.008119339367	24
94	62029	1492.215323204401	121
94	62125	1500.815774468258	85
94	62214	1508.722517256385	78
94	62275	1514.02307910148	52
94	62369	1522.428086341875	83
94	62418	1526.737499248314	42
94	62517	1535.646510619933	88
94	62586	1541.749600511139	60
94	62950	1556.9	129
94	62995	1560.9	39
94	63025	1563.506491138816	25
94	63082	1568.411025213158	48
94	63138	1573.418579547907	49
94	63182	1577.228504861471	37
94	63227	1581.137456907149	38
94	63284	1586.037518715896	48
94	63325	1589.739211228324	36
94	63420	1597.6	56
94	63453	1600.4	27
94	63551	1609.208702065574	87
94	63622	1615.512812276156	62
94	63669	1619.612821219106	40
94	63710	1623.114379231134	34
94	63738	1625.522716694481	23
94	63824	1633.127468610859	75
94	63861	1636.230057876521	30
94	63941	1643.434314325993	71
94	64027	1651.039684138615	75
94	64188	1667.1	131
94	64234	1671.2	40
94	64294	1676.404996768676	51
94	64315	1678.109862999627	16
94	64369	1682.909958199513	47
94	64473	1692.11644168631	91
94	64549	1698.920862772069	67
94	64622	1705.426095234623	64
94	64656	1708.227169845706	27
94	64793	1720.532426233255	122
94	64890	1726.8	28
94	64940	1731.3	44
94	64982	1734.901732238233	35
94	65088	1744.302571927313	93
94	65126	1747.711659097053	33
94	65146	1749.315230312115	15
94	65186	1752.715994221487	33
94	65205	1756.4	4
94	65240	1759.6	31
94	65321	1766.707208564903	70
94	65394	1773.215726916198	64
94	65497	1782.320496387772	90
94	65608	1792.220639951451	98
94	65666	1797.429055280029	51
94	65689	1799.331677809849	18
94	65808	1805.9	39
94	65898	1812.1	61
94	65922	1814.106405802755	19
94	65961	1817.615217193997	34
94	66001	1821.024374434727	33
94	66041	1824.433855402849	33
94	66074	1827.334057552257	28
94	66135	1832.642485474218	52
94	66163	1835.043929519995	23
94	66277	1845.252859618272	101
94	66307	1847.853301519047	25
94	66346	1851.157289198148	32
94	66378	1853.961196385077	27
94	66420	1857.570303215014	35
94	66596	1874.5	145
94	66683	1882.3	77
94	66722	1885.807011401848	34
94	66780	1890.815739751159	49
94	66847	1896.716063415942	58
94	66926	1903.82452613557	70
94	66936	1904.434099911537	5
94	66964	1906.842139164614	23
94	67140	1922.642400428372	157
94	67399	1936.5	105
94	67479	1940.3	37
94	67531	1944.906416348598	45
94	67580	1949.214665656575	42
94	67685	1958.52140705365	92
94	67815	1970.124498104197	115
94	67883	1976.132408174702	59
94	68055	1983.7	37
94	68076	1984.3	5
94	68159	1987.208651905036	28
94	68254	1991.515182210911	42
94	68293	1993.223690527268	16
94	68307	1993.827503897121	5
94	68321	1994.327558130325	4
94	68572	2007.4	94
94	68614	2009.3	18
94	68661	2013.407096477684	40
94	68791	2025.009128750956	115
94	68851	2030.214672913043	51
94	68883	2033.018025046746	27
94	68899	2034.220506446525	11
94	68960	2039.727636453863	54
94	69003	2043.428116177108	36
94	69134	2055.135338531364	116
94	69179	2059.044440224272	38
94	69248	2065.149845198559	60
94	69316	2071.158841127325	59
94	69368	2075.768389724285	45
94	69493	2086.878089999525	110
94	69753	2100.6	106
94	69816	2103.6	29
94	69932	2108.905168011835	52
94	70079	2115.812237983782	68
94	70382	2129.921506538305	140
94	70500	2135.321935796698	53
94	70598	2139.826101973876	44
94	70708	2144.934862204629	50
94	70787	2151.238318471533	62
94	70898	2161.14349728393	98
94	70972	2167.752113748901	65
94	71065	2177	70
94	71090	2179.2	21
94	71120	2181.806269656652	25
94	71152	2184.414571677147	25
94	71191	2187.916143560915	34
94	71220	2190.223515082381	22
94	71248	2192.626922923128	23
94	71348	2203.9	79
94	71379	2206.5	25
94	71475	2215.107590976629	85
94	71522	2219.210960603127	40
94	71574	2223.819678014094	45
94	71613	2227.125789343568	32
94	71679	2232.934584927526	57
94	71726	2237.041123758866	40
94	71771	2240.942377850359	38
94	71849	2247.944563266825	69
94	71993	2255.1	51
94	72032	2256.9	17
94	72119	2262.402905728425	54
94	72140	2264.106278938822	16
94	72185	2268.016194695521	38
94	72227	2271.822610700012	37
94	72265	2275.025242548696	31
94	72295	2277.630736867796	25
94	72312	2278.937349118004	12
94	72475	2288	60
94	72558	2291.9	38
94	72606	2294.000104021509	20
94	72768	2301.701851774267	76
94	72952	2310.108263689506	83
94	73032	2313.814505948511	36
94	73186	2321.019908110779	71
94	73392	2331.4	74
94	73503	2336.6	51
94	73625	2342.20328525105	55
94	73685	2345.006754776085	27
94	73853	2352.81497920663	77
94	73891	2354.923080328352	20
94	73975	2362.326062626594	73
94	74093	2375.5	95
94	74217	2386.6	110
94	74244	2388.908922981943	22
94	74287	2392.610024614773	36
94	74341	2397.418006047775	47
94	74444	2406.520119965708	90
94	74679	2419.3	93
94	74886	2428.9	95
94	74976	2433.002582069735	40
94	75057	2438.307622995266	52
94	75157	2447.315431955457	89
94	75206	2451.616041024432	42
94	75308	2460.620085566651	89
94	75419	2470.521226278775	98
94	75516	2479.230477254685	86
94	75550	2482.039648299977	27
94	75600	2486.449339344353	43
94	75676	2493.257633817345	67
94	75734	2498.265237039357	49
94	75853	2505.9	39
94	75984	2512	60
94	76104	2517.508683705737	54
94	76278	2525.713465353066	81
94	76322	2527.620659890509	18
94	76452	2533.62291579356	59
94	76492	2536.22985489811	25
94	76510	2537.838253695861	15
94	76574	2543.446103039799	55
94	76592	2544.847404369908	13
94	76649	2549.948026417454	50
94	76668	2551.450607582218	14
94	76867	2561.5	75
94	76934	2564.5	29
94	76996	2567.402851210383	28
94	77051	2570.206678133003	27
94	77142	2578.314369163931	80
94	77240	2587.115541369005	87
94	77282	2590.72319945452	35
94	77423	2605.6	116
94	77470	2609.8	41
94	77554	2617.209240582094	73
94	77595	2620.711775083285	34
94	77661	2626.520759597541	57
94	77738	2633.423354041792	68
94	77807	2639.525344407585	60
94	77833	2641.727116530177	21
94	77959	2652.93352755805	111
94	77992	2655.836965557434	28
94	78115	2666.741082990145	108
94	78275	2675.9	59
94	78387	2681.1	51
94	78493	2686.006876112055	48
94	78604	2691.116023635622	50
94	78614	2691.521786550199	3
94	78766	2698.528372276082	69
94	78814	2700.729318417544	21
94	78886	2703.939193221796	31
94	78920	2705.445414353599	14
94	79257	2714.1	61
94	79522	2721.7	75
94	79714	2730.60442061708	88
94	79858	2737.209979433519	65
94	79946	2741.114904285023	38
94	80032	2745.915911497381	47
94	80095	2751.416461541415	54
94	80279	2769.5	155
94	80335	2774.4	48
94	80428	2782.706965468192	82
94	80496	2788.71602174783	59
94	80589	2797.024086908037	82
94	80656	2802.928792218836	58
94	80745	2810.838456254561	78
94	80818	2817.345769875262	64
94	80909	2825.448833529435	80
94	80973	2832.2	42
94	81011	2835.7	34
94	81057	2839.702582164348	39
94	81104	2843.806366710636	40
94	81145	2847.316085264527	34
94	81212	2853.22315888389	58
94	81258	2857.227143626792	39
94	81351	2867.2	72
94	81380	2869.8	25
94	81440	2875.002638093899	51
94	81490	2879.404813726183	43
94	81513	2881.305175257622	18
94	81550	2884.412355384837	30
94	81557	2884.913204934313	4
94	81632	2891.620170173221	66
94	81692	2896.829114100641	51
94	81788	2905.432513562803	85
94	81812	2907.439108159261	19
94	81921	2917.147161349869	96
94	81947	2919.353546601315	21
94	81953	2919.755103033385	3
94	82072	2930.260963171683	104
94	82201	2938.3	43
94	82352	2945.4	70
94	82386	2946.805376760701	13
94	82490	2951.712536116123	48
94	82582	2955.919476844991	41
94	82690	2960.828344618961	48
94	82728	2962.529840231776	16
94	82810	2969.534929163738	69
94	82896	2977.142757489858	75
94	83207	2992.9	129
94	83326	2998.4	54
94	83396	3001.605758472231	31
94	83478	3005.408736146359	37
94	83614	3011.613314790887	61
94	83640	3012.719384075194	10
94	83714	3016.021549466329	32
94	83815	3022.1	21
94	83966	3030.5	83
94	84055	3038.40874369014	78
94	84109	3043.218346304136	47
94	84165	3048.027779846649	47
94	84200	3051.131927239933	30
94	84239	3054.435156188973	32
94	84283	3058.241358949663	37
94	84337	3065.6	36
94	84394	3070.6	49
94	84449	3075.504075907571	48
94	84507	3080.504601403628	49
94	84561	3085.305778406103	47
94	84573	3086.108046895399	7
94	84592	3087.81491375169	16
94	84624	3090.41802296987	25
94	84729	3099.921257266664	94
94	84861	3112.4	104
94	84924	3118	55
94	84978	3122.802077649461	47
94	85047	3128.908368591034	60
94	85100	3133.615042581268	46
94	85133	3136.322312570149	26
94	85213	3143.530674847476	71
94	85241	3145.933460196335	23
94	85338	3154.443383976152	84
94	85373	3157.545702350978	30
94	85421	3161.749033549563	41
94	85550	3168.2	42
94	85637	3172.3	40
94	85653	3173.005836845193	6
94	85728	3176.310464828241	32
94	85812	3180.112665941129	37
94	85818	3180.314176018278	1
94	85920	3185.019415277561	46
94	86084	3193.6	56
94	86223	3200.1	64
94	86281	3202.804266077012	26
94	86379	3207.304832725268	44
94	86429	3209.506404222991	21
94	86565	3215.810069223081	62
94	86633	3218.91125937232	30
94	86775	3225.512987850363	65
94	86825	3227.815620695139	22
94	86949	3238.816514639158	109
94	87135	3255.622173254482	167
94	87197	3262	40
94	87296	3271	89
94	87369	3277.501747120502	64
94	87437	3283.502577335533	59
94	87493	3288.306171099386	47
94	87574	3295.610010489801	72
94	87604	3298.015875010812	23
94	87712	3310.5	85
94	87781	3316.7	61
94	87798	3318.00834919129	12
94	87870	3324.41029483311	63
94	87923	3329.118197438771	46
94	87994	3335.421964166043	62
94	88030	3338.425057448849	29
94	88089	3343.728402208566	52
94	88206	3354.035398393973	102
94	88274	3362.6	46
94	88359	3370.2	75
94	88440	3377.505938277335	72
94	88463	3379.414467339459	18
94	88591	3390.822834673269	113
94	88666	3397.530570963685	66
94	88691	3399.632882670367	20
94	88802	3409.539156214041	98
94	88886	3416.943033683435	73
94	88972	3424.551019180375	75
94	89005	3427.457884409087	28
94	89091	3435.06481557371	75
94	89164	3441.57472163529	64
94	89386	3452.6	86
94	89493	3457.6	49
94	89587	3461.901466043675	42
94	89654	3465.301698093034	33
94	89741	3473.003133413478	76
94	89796	3477.912107287699	48
94	89874	3484.714204312104	67
94	90160	3512.7	247
94	90200	3516.2	34
94	90237	3519.500661164622	32
94	90303	3525.304480284624	57
94	90339	3528.314075328325	29
94	90441	3537.52260365523	91
94	90582	3550.024937253541	124
94	90619	3553.325987293881	32
94	90663	3557.135138945521	37
94	90720	3562.036125558749	48
94	90798	3569.044484990403	69
94	90997	3579.6	76
94	91092	3587.7	80
94	91221	3599.203732332782	114
94	91292	3605.507588613435	62
94	91397	3614.80939632736	92
94	91430	3617.718689272597	28
94	91462	3620.320981775817	25
94	91535	3626.830974177603	64
94	91600	3632.538379245406	56
94	91739	3645.043688050483	124
94	91785	3650.6	26
94	91810	3652.8	21
94	91874	3658.40634504493	55
94	91968	3666.814517510432	83
94	92067	3675.723324953181	88
94	92087	3677.329915127538	15
94	92116	3679.835137800539	24
94	92155	3684.2	22
94	92185	3686.9	26
94	92205	3688.502315800262	15
94	92268	3694.00278981382	54
94	92297	3696.512021160889	24
94	92327	3699.11489898831	25
94	92369	3702.723568320459	35
94	92528	3717.033218453101	142
94	92851	3729	90
94	92884	3730.5	14
94	92934	3732.702593073791	21
94	92970	3734.304597616598	15
94	93132	3741.708338442882	73
94	93194	3744.518143938846	27
94	93238	3746.521002417068	19
94	93431	3756.126007063515	95
94	93487	3761.129014013845	49
94	93544	3766.032349146762	48
94	93573	3768.53239173438	24
94	93619	3772.54119065749	39
94	93649	3775.146400951787	25
94	93680	3777.847772233241	26
94	93700	3779.451359735405	15
94	93784	3786.859346759958	73
94	93874	3796.7	67
94	93903	3799.3	25
94	93949	3803.304623183985	39
94	93974	3805.40893546509	20
94	94012	3808.612703695876	31
94	94096	3816.013708675772	73
94	94108	3817.015508285807	9
94	94216	3828.5	85
94	94303	3836.3	77
94	94381	3843.300158640432	69
94	94409	3845.709674516126	23
94	94454	3849.612105500829	38
94	94501	3853.719234964992	40
94	94542	3857.226681506801	34
94	94626	3864.629076773307	73
94	94679	3869.331456358066	46
94	94725	3873.337971737441	39
94	94890	3888.045476925326	146
94	94950	3893.449297369666	53
94	95036	3901.049503260805	75
94	95182	3909.2	52
94	95295	3914.4	51
94	95335	3916.204443114544	17
94	95485	3923.210397244929	69
94	95578	3927.512117298131	42
94	95653	3934.021048743796	64
94	95734	3941.322093300064	72
94	95804	3949.1	51
94	95879	3955.9	67
94	95944	3961.602397255948	56
94	96009	3967.30337817493	56
94	96075	3973.104380991164	57
94	96140	3978.809259122985	56
94	96201	3984.110058851505	52
94	96282	3994	60
94	96319	3997.4	33
94	96356	4000.504560207142	30
94	96394	4003.908627522	33
94	96458	4009.515606844177	55
94	96508	4013.92106487199	43
94	96553	4017.826579839045	38
94	96631	4024.632155257251	67
94	96662	4027.335630620659	26
94	96683	4029.037995000157	16
94	96714	4031.744172155972	26
94	96913	4049.650376855724	178
94	97046	4062.5	105
94	97080	4065.6	30
94	97116	4068.600159775088	29
94	97183	4074.501986038428	58
94	97252	4080.606800005351	60
94	97307	4085.509997486093	48
94	97362	4090.219034214504	46
94	97398	4093.423382435224	31
94	97459	4098.726377063244	52
94	97510	4103.231234651903	44
94	97548	4106.439106399099	31
94	97617	4112.545694756853	60
94	97693	4119.350646420943	67
94	97902	4130.2	82
94	97970	4134.3	40
94	98000	4136.901737825404	25
94	98125	4148.004107963923	110
94	98156	4150.70877891164	26
94	98189	4153.613105849425	28
94	98212	4155.517684837606	18
94	98329	4167.4	94
94	98371	4171.1	36
94	98529	4185.30774807949	141
94	98628	4194.015437116703	86
94	98669	4197.717313462124	36
94	98764	4206.02559277209	82
94	98849	4213.729327363649	76
94	99051	4231.92999476952	181
94	99125	4239.2	52
94	99241	4249.7	104
94	99284	4253.403372686747	36
94	99305	4255.109498457887	16
94	99341	4258.114319913356	29
94	99408	4264.022182869991	58
94	99471	4269.729955989884	56
94	99515	4273.531510269043	37
94	99573	4277	10
94	99639	4280	29
94	99747	4285.106535720832	50
94	99847	4289.716242942644	45
94	99959	4294.917680534535	51
94	100025	4300.424028434044	54
94	100086	4305.931093226373	54
94	100304	4326.5	185
94	100340	4329.8	32
94	100391	4334.106746750497	42
94	100408	4335.614507918171	14
94	100429	4337.316113065119	16
94	100525	4345.923279291033	85
94	100622	4354.425880663688	84
94	100812	4371.63137208522	171
94	100974	4382.7	87
94	101021	4386.9	41
94	101063	4390.507606042544	35
94	101145	4397.914322545018	73
94	101201	4402.719293500815	47
94	101243	4406.323848027679	35
94	101310	4412.231948632112	58
94	101446	4424.440076272837	121
94	101466	4426.040360358478	15
94	101606	4438.3	83
94	101670	4444	56
94	101784	4454.209801184649	101
94	101793	4454.916216978402	6
94	101817	4456.91948291825	19
94	101859	4460.521667788192	35
94	101910	4465.024576470479	44
94	101957	4469.131711704625	40
94	102000	4472.840130807097	36
94	102047	4476.942383413606	40
94	102141	4485.349573749993	83
94	102187	4489.356110291895	39
94	102330	4503.6	116
94	102374	4507.5	38
94	102399	4509.603627385527	20
94	102462	4515.113397254191	54
94	102470	4515.721158335596	5
94	102537	4521.623502807291	58
94	102617	4528.626965088292	69
94	102682	4534.333628927333	56
94	102761	4541.435136888989	70
94	102838	4548.136456253729	66
94	102914	4554.942732281221	67
94	103047	4568.7	107
94	103179	4580.6	118
94	103253	4587.206180341967	65
94	103298	4591.111426425801	38
94	103365	4597.012176222371	58
94	103482	4609.1	91
94	103504	4611	18
94	103542	4614.205858934062	31
94	103621	4621.311142384176	70
94	103704	4628.619111961909	72
94	103757	4633.32613858158	46
94	103864	4642.826388539508	94
94	103964	4653.6	76
94	104032	4659.7	60
94	104055	4661.606959470917	18
94	104085	4664.010406642697	23
94	104204	4674.71279729768	106
94	104312	4684.313116873398	95
94	104379	4690.215766428753	58
94	104423	4694.016678024879	37
94	104487	4699.816736900945	57
94	104548	4705.124851426639	52
94	104585	4708.230860525358	30
94	104669	4718	60
94	104695	4720.3	22
94	104739	4724.104135925364	37
94	104794	4729.006691575454	48
94	104890	4737.61030461187	85
94	104930	4741.019108855582	33
94	104973	4744.722190176278	36
94	105018	4748.623951384389	38
94	105083	4756.5	45
94	105164	4763.9	73
94	105248	4771.308628675057	73
94	105325	4778.009349346896	66
94	105402	4784.915641557846	68
94	105521	4795.616475950602	106
94	105583	4801.023275581457	53
94	105655	4807.424378905148	63
94	105948	4822	120
94	106075	4827.9	58
94	106177	4833.00269428427	50
94	106311	4845.006422978121	119
94	106419	4854.616106450125	95
94	106542	4865.722658816222	110
94	106594	4870.132540356304	43
94	106686	4878.335420090147	81
94	106755	4884.44540024309	60
94	106807	4889.047419910638	45
94	106953	4902.055257498072	129
94	106996	4905.96431401594	38
94	107040	4909.772792429601	37
94	107173	4921.682263537133	118
94	107282	4931.388532940456	96
94	107349	4937.293821744492	58
94	107428	4944.197711418675	68
94	107636	4956	80
94	107721	4959.9	38
94	107875	4967.001001696703	70
94	107977	4971.709717286361	46
94	108101	4978.614063000035	68
94	108134	4981.523546013276	28
94	108206	4987.927086653286	63
94	108261	4992.634770350801	46
94	108314	4997.341583598435	46
94	108371	5002.245006887148	48
94	108427	5007.254674935665	49
94	108543	5017.661728364655	103
94	108584	5021.167783406828	34
94	108711	5032.472934527217	112
94	108980	5047	110
94	109141	5054.5	74
94	109335	5063.600933441708	90
94	109393	5066.107873077198	24
94	109557	5077.510481439725	113
94	109615	5082.51227145351	49
94	109684	5088.618439504413	60
94	109727	5092.328365992141	36
94	109832	5101.834983515381	94
94	109893	5107.142108483412	52
94	109960	5113.043855913811	58
94	110029	5119.148682389714	60
94	110135	5128.556560612656	93
94	110177	5132.156567090484	35
94	110332	5148.5	125
94	110407	5155.3	67
94	110450	5159.008960225873	36
94	110527	5165.915351798103	68
94	110595	5171.92333381846	59
94	110623	5174.130771902151	21
94	110643	5175.930833260669	17
94	110817	5191.532033610898	155
94	110860	5195.237842306194	36
94	110930	5202.8	48
94	110971	5206.4	35
94	110987	5207.800312397647	13
94	111060	5214.109023691256	62
94	111095	5217.209747626894	30
94	111110	5218.315620557778	10
94	111143	5221.215968440771	28
94	111166	5223.117341982582	18
94	111185	5224.622441137548	14
94	111218	5227.531982574854	28
94	111255	5230.641103757764	30
94	111582	5248.6	146
94	111612	5251.3	26
94	111735	5262.202812347852	108
94	111794	5267.511919479956	52
94	111881	5275.214221407751	76
94	111949	5281.217867108812	59
94	112022	5287.718633601346	64
94	112110	5295.523175672662	77
94	112203	5303.829757417763	82
94	112212	5304.338385867077	4
94	112272	5309.747135394067	53
94	112362	5317.748577920112	79
94	112460	5326.350358844066	85
94	112516	5331.354012516142	49
94	112623	5342.1	81
94	112675	5346.8	46
94	112714	5350.104307941168	32
94	112753	5353.610430507047	34
94	112819	5359.418217412493	57
94	112905	5368.2	62
94	112948	5372	37
94	113001	5376.701363978332	46
94	113047	5380.705783984143	39
94	113081	5383.708185586779	29
94	113145	5389.313716177005	55
94	113179	5392.117660445327	27
94	113238	5400	40
94	113272	5403.1	30
94	113368	5411.703639013038	85
94	113499	5423.412133399727	116
94	113533	5426.215616946545	27
94	113635	5435.417025336421	91
94	113668	5438.117593474558	26
94	113700	5440.92498806914	27
94	113731	5443.631876794613	26
94	113820	5451.538516086517	78
94	113962	5459	50
94	114117	5466.3	72
94	114275	5473.604383239292	72
94	114524	5486.209221492155	125
94	114600	5493.017866822182	67
94	114655	5497.92485823805	48
94	114701	5501.932361984371	39
94	114753	5506.335471629925	43
94	114808	5511.241342859769	48
94	114878	5517.449496180659	61
94	114947	5523.554973158567	60
94	114994	5528.9	29
94	115061	5534.9	59
94	115129	5540.902285527104	59
94	115177	5545.109293834526	41
94	115246	5551.219098462935	60
94	115292	5555.222729402352	39
94	115380	5563.022739004047	77
94	115418	5566.224940288773	31
94	115517	5577.5	75
94	115598	5584.7	71
94	115625	5587.007326075455	22
94	115715	5595.01347465905	79
94	115757	5598.617551556337	35
94	115822	5604.321335681048	56
94	115847	5606.424966865812	20
94	115975	5620.3	103
94	116019	5624.2	38
94	116109	5632.203107005471	79
94	116137	5634.609094197833	23
94	116184	5638.710185177686	40
94	116238	5643.51586035335	47
94	116274	5646.51755114068	29
94	116406	5660.7	107
94	116457	5665.3	45
94	116513	5670.104977730512	47
94	116564	5674.611999413933	44
94	116641	5681.517507637332	68
94	116682	5685.024087216928	34
94	116756	5691.626623468084	65
94	116875	5703.6	96
94	116957	5710.9	72
94	117053	5719.500268386469	85
94	117198	5732.407381784968	128
94	117297	5741.314902404244	88
94	117385	5749.118882238857	77
94	117503	5759.723621742766	105
94	117533	5762.132677728218	23
94	117569	5765.339919352644	31
94	117599	5767.940638391457	25
94	117679	5775.9	59
94	117753	5782.4	64
94	117827	5789.008564761632	65
94	117892	5794.716131751315	56
94	117934	5798.320404443308	35
94	117980	5802.320671830333	39
94	118077	5811.026295958242	86
94	118130	5817.6	36
94	118190	5822.9	52
94	118221	5825.605167150325	26
94	118289	5831.612922823997	59
94	118306	5832.913643804099	12
94	118383	5839.816979568651	68
94	118447	5845.426797955282	55
94	118540	5853.732993382491	82
94	118617	5860.442783555677	66
94	118813	5878.048725583457	175
94	119038	5890.9	89
94	119063	5892	10
94	119086	5893.008307754881	9
94	119230	5899.70886474932	66
94	119350	5905.213977517328	54
94	119438	5909.215274800463	39
94	119569	5915.315923060444	60
94	119699	5921.322786624179	59
94	119786	5925.330404818573	39
94	119910	5931.135543807109	57
94	120155	5945.5	115
94	120214	5950.7	51
94	120256	5954.309068542779	35
94	120406	5967.912022119964	135
94	120657	5979.9	99
94	120712	5982.4	24
94	120854	5989.009761223264	65
94	120902	5991.212991943323	21
94	121044	5997.921781031755	66
94	121097	6000.231429116416	22
94	121151	6002.737633710868	24
94	121207	6005.23771434282	24
94	121261	6007.746500269619	24
94	121379	6013.8	38
94	121434	6016.3	24
94	121570	6022.508613248337	61
94	121632	6025.418316609384	28
94	121698	6028.423121840999	29
94	121746	6030.626718977532	21
94	122020	6043.535858988552	128
94	122041	6045.243234683943	16
94	122071	6047.848905537572	25
94	122182	6053.5	35
94	122253	6056.8	32
94	122548	6070.904054613234	140
94	122570	6072.71402452116	17
94	122658	6080.521514693094	77
94	122722	6086.131182991373	55
94	122754	6088.932474448021	27
94	122809	6093.83856220106	48
94	122895	6101.442580762732	75
94	122944	6105.751570113064	42
94	123023	6112.652284986523	68
94	123093	6118.856724879934	61
94	123124	6123.3	13
94	123152	6125.8	24
94	123217	6131.50521932312	56
94	123257	6134.909723098356	33
94	123300	6138.617147523096	36
94	123334	6141.626168852691	29
94	123368	6144.431600991222	27
94	123489	6157.8	98
94	123535	6161.9	40
94	123578	6165.60786501785	36
94	123627	6169.909776206786	42
94	123668	6173.415525218282	34
94	123767	6182.119183983396	86
94	123858	6190.225042195837	80
94	123957	6199.13337325602	88
94	124039	6206.336995645073	71
94	124089	6213	30
94	124108	6214.6	15
94	124135	6216.90374855502	22
94	124147	6217.909508230341	9
94	124240	6226.018390271083	80
94	124271	6228.724438810443	26
94	124329	6233.931281127404	51
94	124366	6237.034604421405	30