file 186386 1369149732                                          
version 2
run Join-6-20130429-12:49:21-17679
attr configname Join
attr datetime 20130429-12:49:21
attr experiment "\"Join\""
attr inifile omnetpp.ini
attr iterationvars $0=32
attr iterationvars2 "$0=32, $repetition=6"
attr measurement $0=32
attr network Network
attr processid 17679
attr repetition 6
attr replication #6
attr resultdir results
attr runnumber 6
attr seedset 6
vector 6  Network.dyn_peer[0]  lookupHopsSig:vector  ETV
6	434 185952 305 56913 20.421711479703 5505.137282123282 7529 0 7 18078 52940
