file 265351 1369149732                                          
version 2
run Join-72-20130429-12:52:48-17679
attr configname Join
attr datetime 20130429-12:52:48
attr experiment "\"Join\""
attr inifile omnetpp.ini
attr iterationvars $0=4096
attr iterationvars2 "$0=4096, $repetition=2"
attr measurement $0=4096
attr network Network
attr processid 17679
attr repetition 2
attr replication #2
attr resultdir results
attr runnumber 72
attr seedset 72
vector 72  Network.dyn_peer[0]  lookupHopsSig:vector  ETV
72	444 264907 11375 345301 21.817063059812 27331.946604399512 9226 1 131 234351 7856117
