version 2
run Join-28-20130429-12:49:58-17679
attr configname Join
attr datetime 20130429-12:49:58
attr experiment "\"Join\""
attr inifile omnetpp.ini
attr iterationvars $0=128
attr iterationvars2 "$0=128, $repetition=8"
attr measurement $0=128
attr network Network
attr processid 17679
attr repetition 8
attr replication #8
attr resultdir results
attr runnumber 28
attr seedset 28

vector 28  Network.dyn_peer[0]  lookupHopsSig:vector  ETV
28	593	20.512077745654	9
28	602	21.221014903381	6
28	610	21.822525834029	5
28	624	22.831401984749	9
28	644	26.5	5
28	651	27.1	5
28	658	27.604345740966	4
28	663	27.909536151268	2
28	670	28.217694024114	2
28	681	29.119466809829	8
28	688	29.62774636619	4
28	700	30.432383597616	7
28	733	35.5	15
28	748	36.7	11
28	760	37.704053155577	9
28	773	38.605743974598	8
28	781	39.205869299594	5
28	788	39.71085828584	4
28	798	40.224900064843	4
28	810	41.229448615889	9
28	832	44.4	4
28	835	44.6	1
28	839	44.809279270353	1
28	846	45.310359412822	4
28	854	45.919398318085	5
28	868	46.921700984899	9
28	875	47.423966541057	4
28	882	47.92468133364	4
28	893	48.62928804556	6
28	914	52.3	3
28	920	52.8	4
28	930	53.601015390031	7
28	942	54.410273586478	7
28	951	55.113930561636	6
28	960	55.814179713537	6
28	972	56.622028943609	7
28	978	57.028639249959	3
28	988	57.832410972294	7
28	1000	58.634903813927	7
28	1010	59.438751753597	7
28	1021	60.148612309638	6
28	1031	60.949788528834	7
28	1040	61.659223065129	6
28	1060	64.2	2
28	1066	64.7	4
28	1075	65.409477062183	6
28	1086	66.117295090113	6
28	1093	66.623854173279	4
28	1101	67.22820421243	5
28	1107	67.630776160437	3
28	1135	71	10
28	1144	71.8	7
28	1154	72.407423251783	5
28	1161	72.913568116123	4
28	1168	73.423340679452	4
28	1179	74.127041468029	6
28	1187	74.729050426078	5
28	1207	78.2	2
28	1211	78.5	2
28	1218	79.005989129643	4
28	1225	79.510451959399	4
28	1236	80.211991280817	6
28	1245	80.916863112248	6
28	1253	81.519712463799	5
28	1262	82.021582778245	4
28	1275	83.126085446786	10
28	1296	86.3	3
28	1301	86.7	3
28	1308	87.209287085609	4
28	1315	87.718576166351	4
28	1339	90.6	6
28	1349	91.5	8
28	1360	92.20290290798	6
28	1368	92.80831825626	5
28	1397	97.1	11
28	1404	97.7	5
28	1408	97.901074402835	1
28	1418	98.502231823107	5
28	1423	98.809210625273	2
28	1430	99.3134764946	4
28	1438	99.918938202565	5
28	1448	100.52625372574	5
28	1456	101.128601131989	5
28	1482	105	10
28	1492	105.9	8
28	1499	106.209958018441	2
28	1513	107.414181324089	11
28	1520	107.919318169133	4
28	1527	108.227411319202	2
28	1535	108.831727694119	5
28	1543	109.433178578195	5
28	1554	110.141676411194	6
28	1565	111.045720566695	8
28	1594	115.1	11
28	1611	116.5	13
28	1625	117.707296352004	11
28	1634	118.207507969918	4
28	1640	118.615308480297	3
28	1653	119.623612672356	9
28	1666	120.533216406991	8
28	1695	125.1	11
28	1702	125.7	5
28	1706	125.903085332601	1
28	1718	126.706910905632	7
28	1724	127.107027878329	3
28	1730	127.510277947276	3
28	1740	128.110908210561	5
28	1744	128.311921514677	1
28	1751	128.819586514645	4
28	1759	129.425711479834	5
28	1782	132.5	5
28	1790	133.2	6
28	1797	133.705877600293	4
28	1804	134.015796694596	2
28	1820	135.41712512523	13
28	1824	135.622541878915	1
28	1833	136.129230196394	4
28	1844	137.038440985241	8
28	1865	140.3	3
28	1872	140.9	5
28	1878	141.308606313634	3
28	1889	142.009268303512	6
28	1915	146.8	8
28	1918	147	1
28	1924	147.404877135034	3
28	1934	148.012560447782	5
28	1940	148.418697993132	3
28	1944	148.622648468607	1
28	1950	149.024719349434	3
28	1975	153	10
28	1984	153.8	7
28	1990	154.007211529116	1
28	1996	154.414197514585	3
28	2002	154.81823857345	3
28	2008	155.219847683881	3
28	2017	155.928187759467	6
28	2024	156.234360295354	2
28	2029	156.543302866294	2
28	2037	157.14358932623	5
28	2059	160.4	4
28	2065	160.9	4
28	2073	161.508497949573	5
28	2082	162.011669715251	4
28	2087	162.315957623912	2
28	2113	166.8	8
28	2120	167.4	5
28	2130	168.005431745043	5
28	2139	168.707599439863	6
28	2153	169.915675843625	11
28	2164	170.624637210896	6
28	2173	171.326655950898	6
28	2192	174.1	1
28	2202	175	8
28	2211	175.705488093118	6
28	2225	176.712344698544	9
28	2230	177.021927840703	2
28	2239	177.729461555241	6
28	2249	178.335052971001	5
28	2258	179.043812997647	6
28	2267	179.74771341967	6
28	2296	183.1	11
28	2305	183.9	7
28	2317	184.70498989698	7
28	2327	185.512391886184	7
28	2331	185.713555079758	1
28	2338	186.019620120154	2
28	2348	186.827150214241	7
28	2354	187.230640375112	3
28	2376	190.4	4
28	2379	190.6	1
28	2385	191.005728898327	3
28	2391	191.409358982282	3
28	2396	191.712710810528	2
28	2400	191.913415191165	1
28	2406	192.119257636811	1
28	2413	192.626417468139	4
28	2417	192.834011933158	1
28	2421	193.037154401083	1
28	2441	196.2	2
28	2452	197.2	9
28	2459	197.701692575034	4
28	2467	198.102971878442	3
28	2476	198.803593669639	6
28	2482	199.206165267499	3
28	2515	203.5	15
28	2524	204.1	5
28	2538	205.303421729665	11
28	2545	205.806988342866	4
28	2553	206.210513475589	3
28	2562	206.914142257727	6
28	2568	207.323140132399	3
28	2595	210.9	9
28	2603	211.6	6
28	2608	211.909121146749	2
28	2620	212.714329787008	7
28	2649	217.1	11
28	2656	217.7	5
28	2667	218.401013265012	6
28	2674	218.902266755038	4
28	2678	219.104202336353	1
28	2686	219.710210809019	5
28	2715	223.1	11
28	2723	223.8	6
28	2735	224.600628562197	7
28	2742	225.107727540663	4
28	2748	225.512263032141	3
28	2757	226.014226417079	4
28	2771	227.214953971496	11
28	2779	227.822907352016	5
28	2797	229.225409385987	13
28	2810	230.134954329471	8
28	2830	234.2	2
28	2841	235.2	9
28	2849	235.807192844238	5
28	2860	236.509883190499	6
28	2867	237.019025580071	4
28	2873	237.422475280133	3
28	2895	240.4	4
28	2903	241.1	6
28	2907	241.300107433551	1
28	2922	242.402457899651	10
28	2927	242.707829307524	2
28	2934	243.214919500145	4
28	2949	244.3230732244	10
28	2955	244.72650728676	3
28	2966	245.635002432155	8
28	2987	248.3	3
28	2996	249.1	7
28	3006	249.909346541266	7
28	3019	250.812205212157	8
28	3024	251.119688599064	2
28	3031	251.629119861925	4
28	3040	252.138123889847	4
28	3045	252.443422743507	2
28	3050	252.748637307431	2
28	3071	256.3	3
28	3078	256.9	5
28	3082	257.105064811205	1
28	3089	257.606408204388	4
28	3114	260.7	7
28	3122	261.4	6
28	3128	261.809699237996	3
28	3136	262.216273511377	3
28	3142	262.532181689677	2
28	3153	263.432798146173	8
28	3172	266.1	1
28	3178	266.6	4
28	3185	267.106906423463	4
28	3191	267.508545611897	3
28	3202	268.208732545816	6
28	3209	268.710299276043	4
28	3217	269.319108082379	5
28	3243	272.8	8
28	3255	273.9	10
28	3262	274.201692682765	2
28	3267	274.510534353698	2
28	3274	275.01191598114	4
28	3280	275.420090127653	3
28	3291	276.129894193916	6
28	3298	276.634097670127	4
28	3304	277.041839739907	3
28	3309	277.346236905849	2
28	3314	277.654835624238	2
28	3318	277.864441234061	1
28	3362	280.3	3
28	3371	281.1	7
28	3387	282.308650892132	11
28	3394	282.816367655875	4
28	3399	283.121098350932	2
28	3412	284.025920042854	8
28	3437	288.7	7
28	3444	289.3	5
28	3452	289.903583971895	5
28	3463	290.603866003588	6
28	3469	291.01058644174	3
28	3478	291.713207394109	6
28	3494	292.917238944851	11
28	3501	293.331800214292	3
28	3505	293.532015154857	1
28	3526	296.3	3
28	3537	297.3	9
28	3544	297.804312818048	4
28	3555	298.504660251389	6
28	3565	299.305636604804	7
28	3585	302.2	2
28	3591	302.604935640315	3
28	3595	302.812699213702	1
28	3606	303.719119085409	8
28	3616	304.327179297381	5
28	3623	304.832819415794	4
28	3629	305.23649915785	3
28	3635	305.637347826917	3
28	3640	305.940066271823	2
28	3647	306.245320244057	2
28	3656	306.948545174368	6
28	3661	307.252246988049	2
28	3670	307.952799646529	6
28	3682	308.75567386006	7
28	3689	309.257436968027	4
28	3711	312.4	4
28	3721	313.3	8
28	3727	313.709354721501	3
28	3735	314.110007880388	3
28	3739	314.313317105364	1
28	3749	315.117996529104	7
28	3755	315.525512436433	3
28	3785	319.2	12
28	3789	319.5	2
28	3798	320.002379530624	4
28	3802	320.209214655174	1
28	3812	321.018389298656	7
28	3819	321.521711927851	4
28	3824	321.822658903748	2
28	3833	322.323257866553	4
28	3857	326.6	6
28	3862	327	3
28	3866	327.203304101498	1
28	3878	328.003365229244	7
28	3886	328.604008263786	5
28	3894	329.207352517178	5
28	3901	329.71080734778	4
28	3914	330.618372805805	8
28	3933	334.1	1
28	3938	334.5	3
28	3943	334.808334880094	2
28	3951	335.416550882582	5
28	3955	335.619414271013	1
28	3959	335.828678149365	1
28	3966	336.136181326327	2
28	3971	336.442612233604	2
28	4002	341.5	15
28	4011	342.1	5
28	4021	342.813731326911	6
28	4031	343.622658551031	7
28	4048	344.924933122583	12
28	4064	346.134718444578	11
28	4078	347.339750848021	11
28	4103	351	10
28	4108	351.4	3
28	4119	352.104912951798	6
28	4124	352.406088650135	2
28	4128	352.610772053014	1
28	4137	353.315233486924	6
28	4143	353.71802549016	3
28	4163	356.2	2
28	4167	356.5	2
28	4173	356.900547466848	3
28	4182	357.604818346159	6
28	4191	358.113038015666	4
28	4198	358.613075288489	4
28	4205	359.12259699741	4
28	4212	359.630879589646	4
28	4220	360.037587943736	3
28	4248	365	10
28	4253	365.4	3
28	4264	366.105008875171	6
28	4273	366.806964868281	6
28	4279	367.208032791343	3
28	4284	367.515822478852	2
28	4297	368.419248119294	8
28	4307	369.221575273204	7
28	4313	369.626913634513	3
28	4339	373	10
28	4344	373.4	3
28	4350	373.809493185053	3
28	4357	374.117414300627	2
28	4363	374.52698575405	3
28	4369	374.932237864442	3
28	4373	375.137192842427	1
28	4379	375.544142256353	3
28	4390	376.244147110345	6
28	4396	376.648934603131	3
28	4406	377.454102461615	7
28	4434	381	10
28	4438	381.3	2
28	4449	382.004538860789	6
28	4457	382.606931875699	5
28	4471	383.811051805484	11
28	4480	384.320199157594	4
28	4487	384.823850423328	4
28	4495	385.43189285184	5
28	4506	386.13490104095	6
28	4512	386.544772614679	3
28	4517	386.852025972942	2
28	4538	390.3	3
28	4551	391.5	11
28	4557	391.900547153216	3
28	4571	392.902603582408	9
28	4578	393.408865995356	4
28	4588	394.009818196268	5
28	4598	394.810167327787	7
28	4605	395.315686519547	4
28	4611	395.724792985895	3
28	4621	396.326269506842	5
28	4641	400.3	3
28	4647	400.8	4
28	4660	401.902837162418	10
28	4669	402.412388437089	4
28	4686	403.919573740646	14
28	4694	404.322089145252	3
28	4702	404.927392584004	5
28	4714	405.933220044239	9
28	4721	406.235246590447	2
28	4743	410.4	4
28	4749	410.9	4
28	4755	411.306654980597	3
28	4761	411.716599600242	3
28	4771	412.225698338354	4
28	4776	412.529259511097	2
28	4783	413.03522700936	4
28	4793	413.841095740175	7
28	4827	417.6	16
28	4839	418.5	8
28	4846	419.007516392022	4
28	4855	419.713789356387	6
28	4867	420.517387328537	7
28	4877	421.325073689506	7
28	4889	422.131425247606	7
28	4909	426.5	5
28	4917	427.2	6
28	4921	427.401951229695	1
28	4936	428.510776772153	10
28	4962	432.8	8
28	4965	433	1
28	4971	433.406778697234	3
28	4975	433.611149180917	1
28	4983	434.020724890217	3
28	4989	434.423891227195	3
28	5003	435.626383297451	11
28	5017	436.630834278548	9
28	5025	437.238476530548	5
28	5052	440.9	9
28	5059	441.5	5
28	5068	442.001611699366	4
28	5075	442.501740462744	4
28	5081	442.90606537711	3
28	5088	443.409517646239	4
28	5095	443.909578094438	4
28	5105	444.512954363343	5
28	5112	445.018458222886	4
28	5120	445.621263392306	5
28	5143	448.5	5
28	5152	449.3	7
28	5158	449.701309171237	3
28	5168	450.302166882084	5
28	5174	450.71185319695	3
28	5182	451.31580844719	5
28	5189	451.824696236993	4
28	5199	452.432423759056	5
28	5227	457	10
28	5232	457.4	3
28	5236	457.60157039521	1
28	5245	458.107601447805	4
28	5250	458.412603237234	2
28	5255	458.715459346245	2
28	5261	459.117829395444	3
28	5280	462.1	1
28	5289	462.9	7
28	5293	463.104648268523	1
28	5301	463.706706020338	5
28	5309	464.113521836346	3
28	5316	464.616261861861	4
28	5323	465.125419455772	4
28	5332	465.831984393844	6
28	5342	466.434273041671	5
28	5351	467.139023606903	6
28	5359	467.744330975893	5
28	5383	470.6	6
28	5391	471.3	6
28	5396	471.60833540538	2
28	5405	472.109824084703	4
28	5410	472.410996248368	2
28	5415	472.715444567636	2
28	5469	476.6	6
28	5478	477.4	7
28	5489	478.102909696407	6
28	5496	478.611943587066	4
28	5508	479.612816255668	9
28	5530	482.4	4
28	5534	482.7	2
28	5545	483.605242685412	8
28	5558	484.50876756369	8
28	5563	484.814723095745	2
28	5573	485.618093155643	7
28	5581	486.027874468194	3
28	5588	486.529763535416	4
28	5592	486.736618994084	1
28	5598	487.139661242462	3
28	5605	487.646782763335	4
28	5626	490.3	3
28	5633	490.9	5
28	5644	491.80615571411	8
28	5654	492.409985197516	5
28	5659	492.711476092207	2
28	5669	493.520316770133	7
28	5696	496.9	9
28	5703	497.5	5
28	5712	498.002811993944	4
28	5718	498.404677555376	3
28	5723	498.712380878349	2
28	5730	499.212550429309	4
28	5734	499.414495373699	1
28	5745	500.025157510267	5
28	5773	505	10
28	5781	505.7	6
28	5793	506.500697152079	7
28	5797	506.706835471384	1
28	5808	507.607931263834	8
28	5813	507.916814043008	2
28	5821	508.321553835978	3
28	5827	508.724368099309	3
28	5849	512.4	4
28	5854	512.8	3
28	5859	513.100227553111	2
28	5866	513.600593032445	4
28	5874	514.005439562661	3
28	5887	515.105712220394	10
28	5896	515.808094419655	6
28	5905	516.317707460634	4
28	5915	517.127185900725	7
28	5924	517.833403511556	6
28	5936	518.64279363344	7
28	5942	519.051869864631	3
28	5963	522.3	3
28	5969	522.8	4
28	5974	523.107377903389	2
28	5981	523.612220904878	4
28	5986	523.914239627152	2
28	5995	524.420919479957	4
28	6006	525.32406341651	8
28	6033	529.2	12
28	6036	529.4	1
28	6040	529.606133934233	1
28	6054	530.607800395036	9
28	6062	531.215947244203	5
28	6069	531.724012582856	4
28	6080	532.429127120687	6
28	6087	532.936090837602	4
28	6093	533.339871635918	3
28	6107	534.34589935467	9
28	6128	538.3	3
28	6137	539.1	7
28	6151	540.104531707547	9
28	6158	540.613790780708	4
28	6165	541.120638127903	4
28	6169	541.326143863565	1
28	6176	541.830774878936	4
28	6187	542.534960431421	6
28	6195	543.13809641386	5
28	6222	547	10
28	6232	547.9	8
28	6243	548.609703581514	6
28	6254	549.517446628235	8
28	6263	550.017533300026	4
28	6275	551.027151208657	9
28	6291	552.231893095436	11
28	6305	553.435564073302	11
28	6317	554.240156055103	7
28	6324	554.743520639609	4
28	6351	559	10
28	6359	559.7	6
28	6369	560.301300167369	5
28	6373	560.507296803656	1
28	6380	560.915169440523	3
28	6386	561.323012070913	3
28	6400	562.326862020239	9
28	6410	563.136145607449	7
28	6418	563.743325485675	5
28	6430	564.552896804038	7
28	6451	568.3	3
28	6456	568.7	3
28	6474	570.104660789908	13
28	6482	570.708896557192	5
28	6491	571.418266019506	6
28	6516	574.7	7
28	6521	575.1	3
28	6529	575.709669494761	5
28	6537	576.11860882955	3
28	6543	576.523274223095	3
28	6554	577.427217897002	8
28	6566	578.237038179386	7
28	6573	578.738281559649	4
28	6579	579.14811828556	3
28	6589	579.953131083436	7
28	6600	580.661420509763	6
28	6607	581.166947345052	4
28	6634	585.1	11
28	6640	585.6	4
28	6655	586.704330838066	10
28	6665	587.513833296526	7
28	6675	588.12373828187	5
28	6681	588.524352664143	3
28	6690	589.2334595411	6
28	6715	592.7	7
28	6719	593	2
28	6724	593.300480957981	2
28	6729	593.609037928578	2
28	6740	594.309553503658	6
28	6747	594.812855839215	4
28	6759	595.813784769759	9
28	6767	596.221333321046	3
28	6772	596.525164295331	2
28	6779	597.026982952797	4
28	6795	598.22902861855	11
28	6817	602.4	4
28	6823	602.9	4
28	6829	603.303616924951	3
28	6834	603.610798477338	2
28	6842	604.017031649405	3
28	6849	604.51908484251	4
28	6857	605.127555556653	5
28	6864	605.633118615985	4
28	6879	606.742409118962	10
28	6903	610.6	6
28	6911	611.3	6
28	6917	611.707680931284	3
28	6934	613.015736124293	12
28	6939	613.317984286424	2
28	6966	616.9	9
28	6977	617.9	9
28	6995	619.306704550967	13
28	7001	619.708651449758	3
28	7024	622.5	5
28	7037	623.7	11
28	7048	624.400962315958	6
28	7058	625.205729124375	7
28	7065	625.710382076137	4
28	7073	626.117416046306	3
28	7081	626.726142376647	5
28	7092	627.627045615932	8
28	7101	628.132095829469	4
28	7110	628.833154091555	6
28	7118	629.436693138672	5
28	7128	630.037739968959	5
28	7149	634.4	4
28	7161	635.5	10
28	7173	636.307121247674	7
28	7182	637.016039363154	6
28	7190	637.621911408613	5
28	7194	637.825699797268	1
28	7206	638.634155373284	7
28	7212	639.041304462958	3
28	7221	639.745109106449	6
28	7246	642.7	7
28	7253	643.3	5
28	7260	643.803150080051	4
28	7272	644.606850410783	7
28	7278	645.012246832262	3
28	7288	645.812795832272	7
28	7298	646.42220398661	5
28	7306	647.023686583044	5
28	7313	647.532153545834	4
28	7323	648.140626701285	5
28	7330	648.645506225832	4
28	7342	649.65493796981	9
28	7354	650.463813493769	7
28	7382	655	10
28	7398	656.3	12
28	7404	656.70224301059	3
28	7414	657.503145681074	7
28	7423	658.012050932505	4
28	7443	662.2	2
28	7452	663	7
28	7460	663.607388029433	5
28	7471	664.221726948794	5
28	7486	665.521899641287	12
28	7491	665.82935200288	2
28	7500	666.33212173396	4
28	7528	671	10
28	7537	671.8	7
28	7544	672.108963795835	2
28	7548	672.311505719383	1
28	7553	672.621295200345	2
28	7560	673.13062094199	4
28	7574	674.136415611077	9
28	7594	678.2	2
28	7601	678.8	5
28	7611	679.608336184055	7
28	7620	680.109709308117	4
28	7629	680.814339110862	6
28	7634	681.118777285058	2
28	7656	684.4	4
28	7664	685.1	6
28	7672	685.700198383035	5
28	7679	686.007014543492	2
28	7693	687.21001803893	11
28	7700	687.718894316033	4
28	7713	688.625341239846	8
28	7720	689.135151246173	4
28	7743	692.5	5
28	7750	693.1	5
28	7758	693.703038937076	5
28	7768	694.304366224446	5
28	7774	694.704465695352	3
28	7781	695.206548939529	4
28	7788	695.708973799392	4
28	7797	696.213897312518	4
28	7803	696.61562968793	3
28	7823	700.4	4
28	7828	700.8	3
28	7832	701.004489452855	1
28	7842	701.808531852173	7
28	7848	702.011968196946	1
28	7857	702.721923530361	6
28	7863	703.128612403262	3
28	7870	703.637859072396	4
28	7881	704.342056851162	6
28	7892	705.251059662362	8
28	7918	708.8	8
28	7921	709	1
28	7929	709.603606749819	5
28	7938	710.108737203543	4
28	7947	710.813354398092	6
28	7951	711.021177095636	1
28	7958	711.521212529719	4
28	7985	714.9	9
28	7996	715.9	9
28	8005	716.404779298757	4
28	8019	717.614683420976	11
28	8035	718.817586273405	11
28	8059	722.6	6
28	8072	723.8	11
28	8080	724.2046300165	3
28	8091	725.105574016053	8
28	8098	725.613083944808	4
28	8109	726.320387058454	6
28	8131	730.4	4
28	8142	731.4	9
28	8155	732.306124961974	8
28	8166	733.208018656491	8
28	8170	733.413135473359	1
28	8185	734.52132114505	10
28	8191	734.926772989556	3
28	8198	735.434752243524	4
28	8204	735.838688245492	3
28	8225	738.3	3
28	8236	739.3	9
28	8243	739.8034119374	4
28	8255	740.611402987602	7
28	8264	741.311953568027	6
28	8275	742.017084714578	6
28	8285	742.819354739036	7
28	8291	743.223307030394	3
28	8313	746.6	6
28	8321	747.3	6
28	8333	748.10760061471	7
28	8339	748.512135118229	3
28	8349	749.318644406263	7
28	8356	749.819130782657	4
28	8365	750.322258237814	4
28	8370	750.623768757585	2
28	8378	751.228135228474	5
28	8397	754.1	1
28	8406	754.9	7
28	8413	755.407069853313	4
28	8420	755.912958901134	4
28	8431	756.615704862855	6
28	8440	757.324399687298	6
28	8447	757.833322976694	4
28	8457	758.438621235507	5
28	8478	762.3	3
28	8492	763.6	12
28	8501	764.107575670757	4
28	8511	764.910984030278	7
28	8519	765.520026485606	5
28	8533	766.526825823679	9
28	8543	767.327477276886	7
28	8556	768.230971785327	8
28	8584	773	10
28	8589	773.4	3
28	8594	773.70639964261	2
28	8598	773.912653811074	1
28	8604	774.115249669561	1
28	8608	774.318357921016	1
28	8614	774.72726916941	3
28	8618	774.932905323588	1
28	8624	775.336085074964	3
28	8631	775.844094030473	4
28	8637	776.044848121453	1
28	8641	776.245014249814	1
28	8662	780.3	3
28	8667	780.7	3
28	8677	781.502346654664	7
28	8693	782.70355441406	11
28	8721	787	10
28	8728	787.6	5
28	8738	788.20897617289	5
28	8748	789.016206656116	7
28	8753	789.31981196171	2
28	8758	789.623980771124	2
28	8767	790.129669138484	4
28	8772	790.434716559459	2
28	8776	790.636326477917	1
28	8782	791.043935822288	3
28	8809	795	10
28	8817	795.7	6
28	8829	796.501034055447	7
28	8834	796.802451814992	2
28	8838	797.005274661971	1
28	8843	797.307984989544	2
28	8849	797.716106958293	3
28	8856	798.01805363658	2
28	8864	798.626958166033	5
28	8892	803	10
28	8898	803.5	4
28	8913	804.605554132459	10
28	8925	805.614697032037	9
28	8930	805.921004546731	2
28	8937	806.226040858222	2
28	8943	806.629941968783	3
28	8952	807.334495568373	6
28	8958	807.743457414416	3
28	8967	808.250203070867	4
28	8973	808.652572649717	3
28	8995	812.5	5
28	9000	812.9	3
28	9006	813.300457029968	3
28	9014	813.904702151733	5
28	9028	814.912915525567	9
28	9032	815.120150315945	1
28	9042	815.924129983891	7
28	9048	816.12632212749	1
28	9054	816.530727895889	3
28	9077	820.5	5
28	9086	821.3	7
28	9094	821.906775815743	5
28	9110	823.108480193868	11
28	9114	823.311553472282	1
28	9119	823.619013497311	2
28	9130	824.319597680716	6
28	9137	824.823041014762	4
28	9143	825.228567668453	3
28	9158	826.333539136557	10
28	9179	830.3	3
28	9195	831.8	14
28	9204	832.306511446407	4
28	9209	832.609770858224	2
28	9223	833.813153920782	11
28	9243	836.2	2
28	9246	836.4	1
28	9252	836.802211175465	3
28	9262	837.603723795297	7
28	9267	837.910919703407	2
28	9275	838.319050345612	3
28	9281	838.725973619646	3
28	9287	839.134779663816	3
28	9297	839.93538962205	7
28	9318	842.5	5
28	9325	843.1	5
28	9342	844.404361722017	12
28	9348	844.812827618282	3
28	9355	845.313064029241	4
28	9362	845.817520878162	4
28	9372	846.420128330868	5
28	9386	847.624907958172	11
28	9408	850.4	4
28	9413	850.8	3
28	9420	851.30938801018	4
28	9427	851.812009162301	4
28	9448	854.3	3
28	9455	854.9	5
28	9463	855.509405040037	5
28	9467	855.714704372311	1
28	9475	856.117243889934	3
28	9482	856.620284366331	4
28	9493	857.52066614866	8
28	9504	858.222930647681	6
28	9510	858.631247701229	3
28	9521	859.532700170665	8
28	9540	862.3	3
28	9548	863	6
28	9558	863.80590257608	7
28	9569	864.506776010479	6
28	9578	865.209594460258	6
28	9584	865.611431858251	3
28	9588	865.815445182537	1
28	9596	866.217309020519	3
28	9603	866.724518947423	4
28	9611	867.325945784545	5
28	9617	867.727886854386	3
28	9628	868.429279441355	6
28	9638	869.230371172429	7
28	9660	872.4	4
28	9668	873.1	6
28	9681	874.006644647398	8
28	9686	874.315056475437	2
28	9698	875.316922635982	9
28	9703	875.626647716857	2
28	9714	876.327623734943	6
28	9731	880.2	2
28	9734	880.4	1
28	9745	881.305833868572	8
28	9752	881.813201717537	4
28	9780	885	10
28	9786	885.5	4
28	9799	886.401627120703	8
28	9806	886.910806317237	4
28	9813	887.415088078864	4
28	9823	888.01842210371	5
28	9849	892.8	8
28	9853	893.1	2
28	9859	893.509583045369	3
28	9864	893.818695820166	2
28	9893	897.1	11
28	9898	897.5	3
28	9914	898.704187960235	11
28	9921	899.20451745883	4
28	9930	899.913516583804	6
28	9939	900.417456650969	4
28	9944	900.718007960081	2
28	9951	901.225846236773	4
28	9967	902.434278762788	11
28	9977	903.241085220908	7
28	9999	906.4	4
28	10010	907.4	9
28	10015	907.703894996042	2
28	10028	908.610492878211	8
28	10034	909.013783445506	3
28	10040	909.418104056742	3
28	10050	910.027549961591	5
28	10071	914.3	3
28	10079	915	6
28	10100	916.703027755923	16
28	10106	917.110583566215	3
28	10111	917.41743285495	2
28	10121	918.026980094531	5
28	10132	918.936800283427	8
28	10159	922.9	9
28	10164	923.3	3
28	10176	924.10406936513	7
28	10181	924.412177992199	2
28	10188	924.914118145137	4
28	10196	925.521624604827	5
28	10202	925.929639099748	3
28	10211	926.434607410866	4
28	10217	926.742298748471	2
28	10236	930.3	3
28	10242	930.8	4
28	10251	931.507648862218	6
28	10262	932.213601690579	6
28	10274	933.217378721047	9
28	10282	933.819957443946	5
28	10293	934.524343177922	6
28	10307	935.73215459552	11
28	10320	936.640890727412	8
28	10342	940.4	4
28	10347	940.8	3
28	10352	941.1039929079	2
28	10358	941.51372933484	3
28	10372	942.515975285925	9
28	10380	943.120094079578	5
28	10389	943.826216909121	6
28	10398	944.335995197586	4
28	10421	948.5	5
28	10428	949.1	5
28	10437	949.80529752399	6
28	10444	950.106746313343	2
28	10451	950.615278042672	4
28	10458	951.122318939048	4
28	10472	952.129777931178	9
28	10478	952.531545794071	3
28	10484	952.934316817066	3
28	10489	953.244046004135	2
28	10495	953.645495857051	3
28	10507	954.450826262058	7
28	10530	958.5	5
28	10534	958.8	2
28	10541	959.30846726828	4
28	10545	959.509349206276	1
28	10550	959.812967791317	2
28	10571	962.3	3
28	10582	963.3	9
28	10596	964.305203797796	9
28	10604	964.914898280044	5
28	10616	965.914917065174	9
28	10628	966.720042190166	7
28	10651	970.5	5
28	10661	971.4	8
28	10672	972.102991101047	6
28	10680	972.707853245929	5
28	10688	973.313183340258	5
28	10696	973.920757956816	5
28	10707	974.63060136133	6
28	10714	975.140475239817	4
28	10724	975.940792530682	7
28	10745	978.3	3
28	10749	978.6	2
28	10754	978.902355808515	2
28	10762	979.509904845107	5
28	10775	980.412458357037	8
28	10781	980.818925134776	3
28	10790	981.526579932906	6
28	10801	982.236357922009	6
28	10807	982.64007441027	3
28	10811	982.842416598863	1
28	10819	983.444375479967	5
28	10846	986.9	9
28	10855	987.7	7
28	10865	988.30826945865	5
28	10870	988.617982316756	2
28	10877	989.124122051329	4
28	10887	989.934027843359	7
28	10899	990.739187967493	7
28	10917	994.3	3
28	10922	994.7	3
28	10929	995.202939948716	4
28	10935	995.606675901496	3
28	10944	996.111644154462	4
28	10949	996.41730912783	2
28	10957	997.022933043262	5
28	10984	1001.2	12
28	10988	1001.5	2
28	10994	1001.908333089854	3
28	11010	1003.111365100994	11
28	11015	1003.416400788706	2
28	11028	1004.32173988373	8
28	11054	1008.8	8
28	11060	1009.3	4
28	11073	1010.208411105675	8
28	11079	1010.609749250995	3
28	11089	1011.413928077878	7
28	11100	1012.120619414845	6
28	11122	1016.4	4
28	11132	1017.3	8
28	11140	1017.906382254024	5
28	11148	1018.30950250155	3
28	11153	1018.615001582069	2
28	11177	1022.6	6
28	11183	1023.1	4
28	11191	1023.700106882196	5
28	11200	1024.200183160322	4
28	11209	1024.908538415195	6
28	11218	1025.610368973394	6
28	11226	1026.017858711327	3
28	11244	1030.3	3
28	11251	1030.9	5
28	11258	1031.309001797905	3
28	11264	1031.718294849443	3
28	11273	1032.221763931762	4
28	11279	1032.628842361639	3
28	11284	1032.937576208936	2
28	11288	1033.144529907353	1
28	11295	1033.649159193859	4
28	11318	1036.6	6
28	11327	1037.4	7
28	11339	1038.20867572254	7
28	11352	1039.311438980523	10
28	11379	1042.9	9
28	11385	1043.4	4
28	11397	1044.20389717563	7
28	11403	1044.613797519755	3
28	11415	1045.621550663701	9
28	11423	1046.0220750609	3
28	11446	1050.5	5
28	11453	1051.1	5
28	11461	1051.700746830084	5
28	11465	1051.906617291051	1
28	11483	1053.312612668816	13
28	11495	1054.113806695942	7
28	11520	1058.7	7
28	11529	1059.5	7
28	11538	1060.006464807759	4
28	11543	1060.3112215009	2
28	11549	1060.718471367859	3
28	11577	1065	10
28	11583	1065.5	4
28	11592	1066.00112322926	4
28	11600	1066.60555841619	5
28	11608	1067.209348349998	5
28	11616	1067.813557218176	5
28	11645	1071.1	11
28	11653	1071.8	6
28	11661	1072.201216783977	3
28	11667	1072.606826774477	3
28	11688	1076.3	3
28	11697	1077.1	7
28	11704	1077.601467305065	4
28	11709	1077.911414509647	2
28	11723	1078.916910304784	9
28	11752	1083.1	11
28	11757	1083.5	3
28	11763	1083.901049615179	3
28	11771	1084.31087827261	3
28	11776	1084.619414103889	2
28	11783	1085.120377026981	4
28	11792	1085.826383796975	6
28	11804	1086.631801191468	7
28	11831	1090.9	9
28	11841	1091.8	8
28	11848	1092.108754502453	2
28	11856	1092.716082758875	5
28	11862	1093.11897927012	3
28	11882	1096.2	2
28	11888	1096.7	4
28	11897	1097.402634772185	6
28	11911	1098.407468428534	9
28	11917	1098.80945078699	3
28	11941	1102.6	6
28	11947	1103.1	4
28	11956	1103.809541328654	6
28	11969	1104.718473239065	8
28	11976	1105.222214860468	4
28	11983	1105.727377175843	4
28	11996	1106.630555010105	8
28	12018	1110.4	4
28	12027	1111.2	7
28	12036	1111.908744955901	6
28	12044	1112.313840609558	3
28	12053	1113.020625462331	6
28	12064	1113.928807740564	8
28	12089	1116.7	7
28	12095	1117.2	4
28	12103	1117.800889423477	5
28	12117	1118.807940964299	9
28	12125	1119.408792790356	5
28	12137	1120.212983697382	7
28	12159	1124.4	4
28	12167	1125.1	6
28	12174	1125.603850599867	4
28	12184	1126.212615427209	5
28	12189	1126.517062845008	2
28	12196	1127.023924734235	4
28	12203	1127.532708193779	4
28	12208	1127.83703228873	2
28	12229	1130.5	5
28	12234	1130.9	3
28	12249	1132.002168603048	10
28	12255	1132.402294443656	3
28	12263	1133.011929505422	5
28	12268	1133.314409626751	2
28	12279	1134.0178907504	6
28	12286	1134.523630344783	4
28	12302	1135.927562565704	13
28	12324	1138.4	4
28	12331	1139	5
28	12340	1139.705298277949	6
28	12352	1140.505385050302	7
28	12362	1141.309682998164	7
28	12374	1142.112199070675	7
28	12383	1142.722852070263	5
28	12394	1143.630236748127	8
28	12423	1147.1	11
28	12429	1147.6	4
28	12439	1148.201981232345	5
28	12449	1149.010794913677	7
28	12454	1149.3207329674	2
28	12483	1153.1	11
28	12487	1153.4	2
28	12499	1154.202225806168	7
28	12510	1155.111143379595	8
28	12517	1155.62062203	4
28	12522	1155.92216205764	2
28	12535	1156.829266594752	8
28	12545	1157.631065347926	7
28	12569	1160.6	6
28	12574	1161	3
28	12584	1161.802696407407	7
28	12592	1162.208145788928	3
28	12602	1163.008789036121	7
28	12609	1163.51712806898	4
28	12615	1163.922050289388	3
28	12624	1164.422058015383	4
28	12631	1164.9248542465	4
28	12639	1165.525700265256	5
28	12654	1166.633590004565	10
28	12674	1170.3	3
28	12681	1170.9	5
28	12693	1171.90067565897	9
28	12704	1172.610627684106	6
28	12713	1173.312106180122	6
28	12724	1174.017805187742	6
28	12736	1175.021114257944	9
28	12760	1178.6	6
28	12767	1179.2	5
28	12774	1179.708167229918	4
28	12786	1180.514309189109	7
28	12795	1181.21961210223	6
28	12804	1181.929110468037	6
28	12815	1182.629794754511	6
28	12823	1183.238378578516	5
28	12830	1183.739109633847	4
28	12847	1186.1	1
28	12859	1187.2	10
28	12864	1187.503824221044	2
28	12877	1188.407195758034	8
28	12882	1188.712872505296	2
28	12889	1189.221723098343	4
28	12896	1189.723370376301	4
28	12908	1190.525330006442	7
28	12916	1191.127206051872	5
28	12924	1191.736237207332	5
28	12935	1192.442133745821	6
28	12954	1196.3	3
28	12957	1196.5	1
28	12965	1197.105722200861	5
28	12974	1197.809609229319	6
28	12982	1198.20995139466	3
28	12986	1198.413680698283	1
28	12990	1198.617313355158	1
28	12998	1199.224573801806	5
28	13002	1199.433043353384	1
28	13009	1199.938645034938	4
28	13037	1203	10
28	13041	1203.3	2
28	13052	1204.005987913543	6
28	13058	1204.412051131846	3
28	13062	1204.613873959364	1
28	13073	1205.523454424053	8
28	13096	1208.5	5