file 196905 1367232579                                          
version 2
run Join-17-20130429-12:49:38-17679
attr configname Join
attr datetime 20130429-12:49:38
attr experiment "\"Join\""
attr inifile omnetpp.ini
attr iterationvars $0=64
attr iterationvars2 "$0=64, $repetition=7"
attr measurement $0=64
attr network Network
attr processid 17679
attr repetition 7
attr replication #7
attr resultdir results
attr runnumber 17
attr seedset 17

vector 17  Network.dyn_peer[0]  lookupHopsSig:vector  ETV
17	438 196467 429 67198 22.2 6503.547497962143 7635 0 13 27331 123437
