file 252896 1367232661                                          
version 2
run Join-52-20130429-12:50:58-17679
attr configname Join
attr datetime 20130429-12:50:58
attr experiment "\"Join\""
attr inifile omnetpp.ini
attr iterationvars $0=1024
attr iterationvars2 "$0=1024, $repetition=2"
attr measurement $0=1024
attr network Network
attr processid 17679
attr repetition 2
attr replication #2
attr resultdir results
attr runnumber 52
attr seedset 52

vector 52  Network.dyn_peer[0]  lookupHopsSig:vector  ETV
52	444 252452 3099 199285 20.425358476116 17321.236480910621 9018 0 55 134535 2591641
