file 273757 1367233877                                          
version 2
run Join-96-20130429-13:09:26-17679
attr configname Join
attr datetime 20130429-13:09:26
attr experiment "\"Join\""
attr inifile omnetpp.ini
attr iterationvars $0=16384
attr iterationvars2 "$0=16384, $repetition=6"
attr measurement $0=16384
attr network Network
attr processid 17679
attr repetition 6
attr replication #6
attr resultdir results
attr runnumber 96
attr seedset 96

vector 96  Network.dyn_peer[0]  lookupHopsSig:vector  ETV
96	447 273310 43535 732086 22.513724215629 53900.549584989039 9335 1 258 500305 36294727
