version 2
run Join-80-20130429-12:54:17-17679
attr configname Join
attr datetime 20130429-12:54:17
attr experiment "\"Join\""
attr inifile omnetpp.ini
attr iterationvars $0=8192
attr iterationvars2 "$0=8192, $repetition=0"
attr measurement $0=8192
attr network Network
attr processid 17679
attr repetition 0
attr replication #0
attr resultdir results
attr runnumber 80
attr seedset 80

vector 80  Network.dyn_peer[0]  lookupHopsSig:vector  ETV
80	22189	20.31466256285	59
80	22241	24.919566642464	45
80	22509	34.6	66
80	22565	36.3	16
80	22678	39.801912032554	34
80	22769	44.504542051185	46
80	22806	47.80694051019	32
80	22852	51.808972217369	39
80	22919	57.715928095237	58
80	22970	62.017315938563	42
80	23008	65.421800342699	33
80	23044	68.42658498195	29
80	23082	71.836333368341	33
80	23128	75.845207511879	39
80	23149	77.551782481966	16
80	23168	79.054615133402	14
80	23242	86.4	44
80	23262	88.1	16
80	23324	93.703068345764	55
80	23390	99.510164388774	57
80	23479	107.410889261576	78
80	23538	112.516948247199	50
80	23598	117.92331283643	53
80	23638	121.328619157589	33
80	23684	125.33358778284	39
80	23727	129.035075207052	36
80	23756	131.53867422403	24
80	23797	135.04350656198	34
80	23863	140.853292202559	57
80	23906	144.560386087969	36
80	23959	149.267827843977	46
80	24029	155.469327104489	61
80	24115	163.078023613585	75
80	24226	169.5	35
80	24305	173.1	35
80	24481	181.20633083461	80
80	24575	185.507301393699	42
80	24683	194.808048970485	92
80	24778	200.7	27
80	24943	208.3	75
80	25015	211.708496728667	33
80	25083	214.710761481297	29
80	25181	219.318296037348	45
80	25313	226.328248107998	69
80	25360	230.429971810436	40
80	25427	236.331299324853	58
80	25451	238.333454417626	19
80	25474	240.235566118075	18
80	25530	245.244969829401	49
80	25603	253.1	51
80	25670	259.1	59
80	25751	266.200533303474	70
80	25813	271.801326014043	55
80	25824	272.503012561092	6
80	25882	277.70416383251	51
80	25951	283.806231679114	60
80	26020	289.913850378748	60
80	26085	295.6192004325	56
80	26104	297.120890388304	14
80	26169	302.823975461294	56
80	26238	308.929116168523	60
80	26279	314.2	22
80	26305	316.5	22
80	26311	316.908325365856	3
80	26364	321.616933985824	46
80	26389	323.720725298871	20
80	26423	326.521892420398	27
80	26451	328.922163514217	23
80	26479	331.322986533168	23
80	26557	338.124934183777	67
80	26605	342.3346812426	41
80	26738	356.5	105
80	26763	358.7	21
80	26768	359.002284783795	2
80	26786	360.408587738468	13
80	26859	366.912803550548	64
80	26885	369.116332389141	21
80	26932	373.223470696137	40
80	26967	376.131136252319	28
80	27049	383.537265038851	73
80	27088	386.839392797394	32
80	27111	388.739516023289	18
80	27158	394.7	27
80	27255	403.5	87
80	27313	408.509046383313	49
80	27365	413.115118985813	45
80	27455	421.125017441025	79
80	27500	425.026568630731	38
80	27531	427.731527085986	26
80	27584	432.239716300074	44
80	27634	436.64709771932	43
80	27674	440.055362459927	33
80	27700	442.264889509715	21
80	27731	447.4	14
80	27750	449	15
80	27788	452.206715497488	31
80	27863	458.909663765539	66
80	27905	462.516468817099	35
80	27951	466.52486099937	39
80	28001	470.92973506551	43
80	28072	477.230492993995	62
80	28134	482.633312352487	53
80	28227	492.9	69
80	28248	494.7	17
80	28269	496.400135819246	16
80	28274	496.700146984106	2
80	28335	502.004390261983	52
80	28381	506.014108312359	39
80	28435	510.824075512949	47
80	28482	514.929588589372	40
80	28729	527.7	97
80	28792	530.5	27
80	28829	533.307708437978	27
80	28871	536.912478678305	35
80	28886	538.014243660095	10
80	28966	545.216355045901	71
80	29009	548.918807331623	36
80	29053	554.7	27
80	29069	556	12
80	29096	558.300920092228	22
80	29105	559.003679595347	6
80	29145	562.411608863898	33
80	29201	567.416944225569	49
80	29260	572.5176642434	50
80	29378	583.126134694475	105
80	29453	591.3	53
80	29510	596.3	49
80	29537	598.606436211613	22
80	29612	605.309201888655	66
80	29634	607.114819437597	17
80	29710	613.923529955675	67
80	29779	620.7	47
80	29801	622.6	18
80	29828	624.90458271845	22
80	29853	627.011091792164	20
80	29881	629.419482061862	23
80	29947	635.221502712188	57
80	29984	638.323425637037	30
80	30045	646.2	42
80	30142	655	87
80	30192	659.401014857538	43
80	30286	667.804102696235	83
80	30433	675.2	52
80	30458	676.6	13
80	30500	680.20301266286	35
80	30518	681.804258410208	15
80	30558	685.208373436947	33
80	30578	686.814710546755	15
80	30595	688.115330152744	12
80	30639	694.7	27
80	30693	699.6	48
80	30734	703.101806465247	34
80	30784	707.507543559951	43
80	30890	716.911025493975	93
80	30916	719.119975655405	21
80	30926	719.923165861719	7
80	30962	722.929582268071	29
80	31001	726.229842223633	32
80	31031	728.831055266683	25
80	31061	731.436214701021	25
80	31198	738.7	47
80	31210	739.8	10
80	31224	740.802516474942	9
80	31234	741.610368833042	7
80	31277	745.311407251046	36
80	31328	749.816390978982	44
80	31408	756.823852352145	69
80	31443	759.933594163522	30
80	31471	762.143155564557	21
80	31497	764.345356709592	21
80	31558	769.854310486144	54
80	31667	780.3	83
80	31700	783.3	29
80	31737	786.407483658117	30
80	31787	790.808642127184	43
80	31884	799.516271233533	86
80	31943	804.617967616617	50
80	32168	816.8	88
80	32203	818.4	15
80	32264	821.203862102029	27
80	32355	825.304577695449	40
80	32427	828.311831352024	29
80	32492	834.01887904288	56
80	32578	841.827302120255	77
80	32679	850.732839722618	88
80	32758	857.842217439393	70
80	32774	859.046312642906	11
80	32857	866.356018032681	72
80	32924	874.7	47
80	32964	878.2	34
80	33024	883.601979991239	53
80	33059	886.508146452048	28
80	33117	891.712484019229	51
80	33178	897.021902382611	52
80	33300	909.6	96
80	33326	911.9	22
80	33344	913.305930264228	13
80	33368	915.315139914754	19
80	33456	923.118218666939	77
80	33481	925.221962000366	20
80	33524	928.926246734118	36
80	33544	930.52739720579	15
80	33568	932.533968514711	19
80	33578	933.337876601288	7
80	33619	938.3	23
80	33653	941.4	30
80	33664	942.108471006089	6
80	33735	948.41585030059	62
80	33745	949.221967994518	7
80	33765	950.827843961211	15
80	33795	953.437114455882	25
80	33942	968	120
80	33950	968.7	6
80	33971	970.406934731702	16
80	34021	974.808096775353	43
80	34072	979.313077090213	44
80	34086	980.314691317989	9
80	34097	981.220796511158	8
80	34115	984.3	3
80	34124	985.1	7
80	34149	987.202843156252	20
80	34178	989.703952152496	24
80	34192	990.704318725247	9
80	34203	991.611069760468	8
80	34255	996.01866802499	43
80	34285	998.628099529161	25
80	34297	999.636900046844	9
80	34311	1000.639967599985	9
80	34357	1006.7	27
80	34412	1011.7	49
80	34450	1014.909796483078	31
80	34493	1018.613731666038	36
80	34571	1025.620224284204	69
80	34615	1029.425124026804	37
80	34632	1030.730332669903	12
80	34702	1039.1	51
80	34739	1042.3	31
80	34774	1045.401214594591	30
80	34821	1049.501791874984	40
80	34849	1051.910298625243	23
80	34958	1057.2	32
80	35093	1063.5	62
80	35125	1064.906694853256	13
80	35207	1068.613536073322	36
80	35291	1072.521893781897	38
80	35322	1075.226853666685	26
80	35435	1085.332308864036	100
80	35482	1089.439470834235	40
80	35487	1089.742927520662	2
80	35506	1091.249578644887	14
80	35556	1095.649810798279	43
80	35589	1098.354519055123	26
80	35623	1101.362003987306	29
80	35794	1118.1	141
80	35827	1121.1	29
80	35866	1124.408503890084	32
80	35922	1129.417994930366	49
80	35959	1132.519390952015	30
80	35995	1135.72186905385	31
80	36036	1139.22578365802	34
80	36049	1140.128150288445	8
80	36062	1141.232673281066	10
80	36076	1142.238842111127	9
80	36133	1147.347348680698	50
80	36289	1162.6	126
80	36316	1165	23
80	36341	1167.109154338731	20
80	36378	1170.210084912396	30
80	36479	1179.310099311378	90
80	36515	1182.311519871512	29
80	36543	1184.712939453667	23
80	36610	1190.615684054952	58
80	36642	1193.420377618402	27
80	36665	1195.329894556579	18
80	36726	1200.636381128752	52
80	36757	1203.340667212095	26
80	36821	1208.943893562165	55
80	36902	1217.9	59
80	36977	1224.5	65
80	37026	1228.809301207738	42
80	37051	1230.918378519701	20
80	37113	1236.326728243416	53
80	37148	1239.43404989535	30
80	37177	1241.9423235762	24
80	37227	1246.15114563909	41
80	37269	1249.952518734914	37
80	37313	1253.754374301115	37
80	37331	1255.157203889713	13
80	37375	1258.963435409351	37
80	37419	1262.770879528015	37
80	37548	1270.4	44
80	37651	1275.2	47
80	37687	1276.808053583407	15
80	37771	1280.614886246153	37
80	37843	1283.918804716376	32
80	37916	1287.227207969046	32
80	37938	1288.127404936634	8
80	38087	1295.032182503284	68
80	38181	1299.334663540545	42
80	38237	1301.738863771856	23
80	38392	1309.4	54
80	38429	1311.1	16
80	38492	1315.409670269247	42
80	38577	1322.918422523427	74
80	38589	1323.921488649956	9
80	38663	1330.324250090121	63
80	38757	1341	70
80	38788	1343.8	27
80	38824	1346.808137248037	29
80	38853	1349.31795566715	24
80	38909	1354.125988935194	47
80	38966	1359.233287565856	50
80	39008	1362.836572902532	35
80	39032	1364.843350559732	19
80	39067	1367.952151366833	30
80	39095	1370.160781973064	21
80	39124	1372.667631289958	24
80	39167	1376.37363337746	36
80	39219	1380.979213379988	45
80	39290	1388.9	49
80	39319	1391.5	25
80	39360	1395.007208283874	34
80	39386	1397.215783390728	21
80	39406	1398.824783371786	15
80	39466	1404.027325992792	51
80	39519	1408.728106389882	46
80	39567	1412.928349897808	41
80	39588	1414.62836026936	16
80	39693	1421.2	32
80	39746	1423.5	22
80	39812	1426.507205505152	29
80	39847	1428.31527976145	17
80	39876	1430.818102516461	24
80	39909	1433.72450256232	28
80	39932	1435.63251989224	18
80	39982	1441.3	33
80	40031	1445.7	43
80	40084	1450.207752107759	44
80	40134	1454.615302275253	43
80	40179	1458.519799199801	38
80	40230	1463.022462003815	44
80	40280	1467.423417418289	43
80	40330	1473.3	33
80	40353	1475.3	19
80	40416	1480.803278464851	54
80	40521	1490.110352606956	92
80	40568	1494.214689971668	40
80	40605	1497.516742184258	32
80	40646	1501.026073717587	34
80	40695	1505.32945869165	42
80	40718	1507.230691529784	18
80	40780	1514	40
80	40829	1518.4	43
80	40852	1520.303936916443	18
80	40873	1522.012496552974	16
80	40902	1524.517506861476	24
80	40929	1526.824035214633	22
80	40969	1530.233283832955	33
80	41025	1535.242313312633	49
80	41081	1540.050548569959	47
80	41133	1544.65321219899	45
80	41190	1551.9	39
80	41224	1554.8	28
80	41312	1562.607808091603	77
80	41332	1564.215414146317	15
80	41382	1568.623801135585	43
80	41434	1573.232195077029	45
80	41472	1576.43822930414	31
80	41505	1579.344470847384	28
80	41556	1583.845769671699	44
80	41681	1590.2	42
80	41870	1598.9	86
80	41943	1603.601709973181	46
80	41954	1604.3031522225	6
80	41972	1605.91177141287	15
80	42030	1610.920516108259	49
80	42080	1615.321538640284	43
80	42166	1624.5	65
80	42267	1633.7	91
80	42302	1636.606463136968	28
80	42329	1638.914685879593	22
80	42373	1642.716062708477	37
80	42421	1646.918840062393	41
80	42461	1650.319194539113	33
80	42492	1653.023931532821	26
80	42523	1655.730938336292	26
80	42563	1659.137530941715	33
80	42611	1663.34626293192	41
80	42637	1665.549620033091	21
80	42894	1678.3	103
80	42937	1680.3	19
80	42973	1681.905038395072	15
80	43003	1683.212235114413	12
80	43042	1684.914735395074	16
80	43090	1687.119122764641	21
80	43120	1688.325565376617	11
80	43247	1695.6	36
80	43302	1698.1	24
80	43378	1704.3085426529	61
80	43405	1706.61671363511	22
80	43428	1708.51827022597	18
80	43504	1715.323624250786	67
80	43542	1718.532837906593	31
80	43591	1722.83817071579	42
80	43685	1731.242809981916	83
80	43898	1739	50
80	43980	1741.4	23
80	44119	1745.706719953352	42
80	44237	1750.31532043974	45
80	44298	1754.918233286832	45
80	44348	1759.324304543021	43
80	44382	1762.132119873517	27
80	44520	1774.534895240135	123
80	44580	1779.938197936219	53
80	44621	1783.444573028347	34
80	44643	1785.252527516573	17
80	44695	1789.861642963327	45
80	44733	1793.065708003078	31
80	44760	1795.374777089593	22
80	44943	1804.8	68
80	45070	1810.6	57
80	45114	1814.406658963132	37
80	45181	1820.315190690319	58
80	45257	1827.123806655829	67
80	45332	1835.3	53
80	45364	1838	26
80	45389	1840.104809706145	20
80	45466	1847.011353598387	68
80	45475	1847.713265670855	6
80	45499	1849.7207228815	19
80	45524	1851.827715017106	20
80	45591	1858.8	48
80	45631	1862.3	34
80	45720	1870.208715354956	78
80	45748	1872.609182224278	23
80	45767	1874.11834451771	14
80	45800	1877.021275831934	28
80	45965	1893.5	135
80	46017	1898	44
80	46042	1900.101651304366	20
80	46080	1903.50215889892	33
80	46130	1907.909072079769	43
80	46193	1913.418247155683	54
80	46208	1914.527566761333	10
80	46257	1918.828803192906	42
80	46345	1926.631061174828	77
80	46395	1931.039715407891	43
80	46417	1932.839959349981	17
80	46427	1933.640443024751	7
80	46686	1942.1	61
80	46755	1945.2	30
80	46845	1949.405431040176	41
80	46935	1957.111451589148	76
80	46984	1961.41664400624	42
80	47031	1965.518699941892	40
80	47070	1968.825924885071	32
80	47131	1974.131684117231	52
80	47149	1975.740785455503	15
80	47198	1980.9	29
80	47229	1983.7	27
80	47255	1985.900953973045	21
80	47267	1986.704734420743	7
80	47302	1989.808403865172	30
80	47367	1995.509742601689	56
80	47405	1998.713743115996	31
80	47433	2001.116667582862	23
80	47443	2001.926346081277	7
80	47527	2009.332887229121	73
80	47562	2012.237141995874	28
80	47592	2014.84423048979	25
80	47637	2018.744838524678	38
80	47692	2025.5	35
80	47732	2029	34
80	47756	2031.001387398487	19
80	47774	2032.410483479934	13
80	47873	2041.314711442071	88
80	47896	2043.21597010358	18
80	47919	2045.118891768073	18
80	47948	2047.627078280969	24
80	47980	2050.230387793854	25
80	48065	2057.934134652891	76
80	48137	2064.141916679762	61
80	48218	2070.1	21
80	48334	2078.2	80
80	48370	2081.403869118436	31
80	48440	2087.608706026861	61
80	48489	2091.915671590698	42
80	48529	2095.323226634551	33
80	48535	2095.732595244786	3
80	48599	2102.5	45
80	48620	2104.3	17
80	48643	2106.201047129603	18
80	48665	2108.006806564091	17
80	48690	2110.10694120851	20
80	48747	2115.21161273219	50
80	48768	2116.916908407903	16
80	48817	2123.2	32
80	48851	2126.1	28
80	48856	2126.408443469491	2
80	48890	2129.411568852218	29
80	48918	2131.820198501848	23
80	48954	2134.828338284968	29
80	48989	2137.931854185876	30
80	49123	2150.9	109
80	49176	2155.7	47
80	49195	2157.207884193428	14
80	49270	2163.910731354956	66
80	49300	2166.317372642158	23
80	49330	2168.921501800411	25
80	49375	2172.823466938545	38
80	49409	2175.829871251391	29
80	49455	2179.830975284435	39
80	49490	2182.73701115144	28
80	49517	2185.037033544264	22
80	49543	2187.241981503234	21
80	49573	2189.847465780218	25
80	49654	2196.9560718786	70
80	49721	2204.5	45
80	49771	2209	44
80	49820	2213.300910731034	42
80	49864	2217.107896582038	37
80	49913	2221.415804523309	42
80	49960	2225.522094932156	40
80	50005	2229.429625900242	38
80	50110	2240.2	82
80	50201	2248.4	81
80	50240	2251.908060125918	34
80	50303	2257.417399879593	54
80	50336	2260.12365451001	26
80	50364	2262.526147486606	23
80	50379	2263.832418544796	12
80	50488	2273.537150557912	96
80	50501	2274.441366397796	8
80	50566	2280.150271690135	56
80	50605	2283.651465480412	34
80	50636	2286.151863766224	24
80	50667	2288.857024367239	26
80	50743	2295.65705707241	67
80	50760	2296.958373097164	12
80	50924	2306.6	66
80	50950	2308.9	22
80	50969	2310.406016032525	14
80	51026	2315.506971842401	50
80	51058	2318.113616314326	25
80	51117	2323.421479944587	52
80	51206	2331.324182903995	78
80	51264	2337.8	38
80	51301	2341	31
80	51345	2344.807275115244	37
80	51408	2350.308865086209	54
80	51442	2353.31128411708	29
80	51500	2358.319027110473	49
80	51544	2362.128602154287	37
80	51629	2372.4	64
80	51642	2373.6	11
80	51673	2376.106542927017	24
80	51701	2378.513487924569	23
80	51731	2381.12237036483	25
80	51775	2384.926852980324	37
80	51830	2389.827004860665	48
80	51862	2392.433052656927	25
80	51884	2394.235163236229	17
80	52049	2404	60
80	52108	2406.7	26
80	52170	2409.500885381302	27
80	52204	2410.904695991083	13
80	52256	2413.605200457094	26
80	52288	2416.209224357919	25
80	52317	2418.718162685855	24
80	52396	2425.819149544109	70
80	52428	2428.425499115188	25
80	52475	2432.534454331451	40
80	52516	2438.3	23
80	52539	2440.3	19
80	52552	2441.409739370134	10
80	52565	2442.319693089322	8
80	52603	2445.72506989295	33
80	52642	2449.026351983201	32
80	52683	2452.526847084039	34
80	52717	2455.536619712312	29
80	52743	2457.746404524887	21
80	52788	2461.64879736414	38
80	52832	2465.457777558335	37
80	52883	2469.965548428902	44
80	52904	2471.667308095995	16
80	53022	2483.4	94
80	53032	2484.1	6
80	53043	2485.004792573251	8
80	53071	2487.40640416718	23
80	53125	2492.00810616514	45
80	53146	2493.913580704315	18
80	53160	2494.922202435769	9
80	53252	2505.1	71
80	53290	2508.4	32
80	53321	2511.104493008074	26
80	53378	2516.005519728443	48
80	53456	2523.014611298384	69
80	53502	2527.024102088075	39
80	53525	2528.926919935501	18
80	53554	2531.429180420683	24
80	53566	2532.233419386112	7
80	53617	2536.735082079629	44
80	53644	2539.037863476262	22
80	53698	2545.4	34
80	53755	2550.4	49
80	53772	2551.909657507967	14
80	53849	2558.617816278673	66
80	53867	2560.020987443671	13
80	53892	2562.127924918086	20
80	53917	2564.230263560976	20
80	53924	2564.7343169658	4
80	53999	2571.44046111395	66
80	54024	2573.542197235106	20
80	54162	2579.5	35
80	54220	2582.3	27
80	54312	2590.503368120363	81
80	54359	2594.604966646686	40
80	54374	2595.905300144568	12
80	54420	2599.90832956054	39
80	54473	2604.410122658461	44
80	54511	2607.815513314653	33
80	54549	2611.022418926974	31
80	54576	2613.324568812799	22
80	54600	2615.333680926804	19
80	54640	2618.736474699024	33
80	54679	2622.037958380102	32
80	54728	2629.1	31
80	54750	2631	18
80	54778	2633.401627554649	23
80	54797	2634.901834109576	14
80	54834	2638.008117227055	30
80	54861	2640.312991139927	22
80	54870	2641.014796429389	6
80	54936	2648.7	47
80	54967	2651.5	27
80	55002	2654.403352167715	28
80	55030	2656.805697286456	23
80	55083	2661.508559315859	46
80	55089	2661.914094621923	3
80	55125	2664.91646028567	29
80	55163	2670.1	21
80	55200	2673.5	33
80	55231	2676.008266954582	24
80	55304	2682.510589967439	64
80	55331	2684.811368522855	22
80	55381	2689.220265471554	43
80	55442	2694.525077302074	52
80	55474	2697.328148096839	27
80	55592	2707.936844984467	105
80	55658	2714.4	44
80	55687	2717	25
80	55694	2717.50059083068	4
80	55722	2719.910574838739	23
80	55787	2725.611553802877	56
80	55796	2726.11712349612	4
80	55801	2726.420761108428	2
80	55887	2736.5	65
80	55897	2737.4	8
80	55920	2739.303654710713	18
80	55936	2740.503845902585	11
80	55988	2745.111334026448	45
80	56029	2748.612762009693	34
80	56066	2751.913683542907	32
80	56103	2755.016296320066	30
80	56173	2761.2170357934	61
80	56249	2769.4	54
80	56268	2771	15
80	56290	2772.808822066837	17
80	56311	2774.514964881299	16
80	56348	2777.81989753306	32
80	56387	2781.123066440705	32
80	56407	2782.725771320781	15
80	56430	2784.627281995506	18
80	56451	2786.329412310826	16
80	56476	2788.432306019279	20
80	56498	2790.236204212093	17
80	56533	2793.343548913662	30
80	56756	2805.6	96
80	56778	2807.5	18
80	56801	2809.407880472745	18
80	56825	2811.413380636688	19
80	56847	2813.21679641503	17
80	56891	2817.025709344617	37
80	56936	2820.927061040001	38
80	56996	2828.1	41
80	57057	2833.7	55
80	57088	2836.201280483072	24
80	57102	2837.403965800161	11
80	57149	2841.506671950892	40
80	57166	2842.812638082793	12
80	57176	2843.613768436613	7
80	57186	2844.21948409904	5
80	57257	2853.1	51
80	57263	2853.6	4
80	57299	2856.608863491995	29
80	57358	2861.914469822223	52
80	57461	2871.02188812598	90
80	57533	2877.425973462533	63
80	57546	2878.333958467269	8
80	57585	2881.839313239977	34
80	57596	2882.547001541243	6
80	57674	2889.551876044119	69
80	57712	2892.761566499154	31
80	57733	2894.466135614136	16
80	57798	2900.17490320725	56
80	57883	2910.1	61
80	57899	2911.6	14
80	57937	2914.800699930372	31
80	57943	2915.204956338705	3
80	57972	2917.708997993733	24
80	58001	2920.014854412149	22
80	58031	2922.621676773885	25
80	58067	2925.82548770962	31
80	58099	2928.42822608258	25
80	58136	2931.73437793875	32
80	58189	2934.8	8
80	58272	2938.6	37
80	58366	2942.802326210183	41
80	58396	2944.007775859027	11
80	58463	2948.514234499081	44
80	58501	2951.916288930566	33
80	58554	2956.425477233924	44
80	58631	2965.8	58
80	58663	2968.5	26
80	58689	2970.703381159945	21
80	58746	2975.807402098808	50
80	58797	2980.109145465121	42
80	58825	2982.517485052554	23
80	58941	2992.922985551617	103
80	59038	2998.8	28
80	59111	3002.2	33
80	59141	3003.500916352572	12
80	59243	3008.109886871513	45
80	59263	3009.010952102813	8
80	59315	3011.313096747255	22
80	59381	3014.319994873554	29
80	59461	3022.6	46
80	59514	3027.4	47
80	59555	3030.90896941418	34
80	59622	3036.811974137536	58
80	59662	3040.221440487086	33
80	59716	3045.028682320163	47
80	59786	3051.232375273395	61
80	59876	3060.9	69
80	59939	3066.5	55
80	59975	3069.709470529255	31
80	60022	3073.814008494519	40
80	60044	3075.618524609749	17
80	60084	3079.023973216447	33
80	60126	3082.625964579388	35
80	60192	3088.429426898161	57
80	60227	3091.532175578129	30
80	60269	3095.141481770738	35
80	60326	3101.9	39
80	60400	3108.4	64
80	60495	3116.901669562919	84
80	60537	3120.509080767244	35
80	60578	3124.012815387387	34
80	60609	3126.715963109322	26
80	60635	3128.920191258362	21
80	60667	3131.722290399747	27
80	60709	3135.326442360207	35
80	60809	3145.7	77
80	60917	3155.4	96
80	61009	3163.600491589091	81
80	61078	3169.705298864822	60
80	61124	3173.710666622027	39
80	61170	3177.714075690762	39
80	61236	3183.514099848897	57
80	61301	3189.216846448509	56
80	61345	3193.026335045543	37
80	61405	3200	40
80	61421	3201.5	14
80	61452	3204.00243844388	24
80	61480	3206.407002668908	23
80	61517	3209.708051235746	32
80	61546	3212.009759580514	22
80	61559	3213.113246556506	10
80	61584	3215.220508066736	20
80	61600	3216.421008386631	11
80	61638	3219.824124064795	33
80	61671	3222.528932724462	26
80	61716	3226.433111972277	38
80	61768	3233.3	33
80	61824	3238.2	48
80	61834	3239.008544843213	7
80	61909	3245.715753148228	66
80	61924	3246.8209007272	10
80	61957	3249.722520160734	28
80	62013	3254.526934059083	47
80	62034	3256.228500583455	16
80	62114	3263.43593028559	71
80	62166	3269.2	32
80	62203	3272.4	31
80	62269	3278.200679322564	57
80	62306	3281.507196379759	32
80	62345	3284.811799677946	32
80	62387	3288.420115421465	35
80	62423	3291.623923772046	31
80	62457	3295.9	19
80	62500	3299.7	37
80	62544	3303.508801008542	37
80	62590	3307.510478977062	39
80	62623	3310.217276138676	26
80	62670	3314.31959976917	40
80	62720	3318.724998549303	43
80	62831	3330.8	88
80	62918	3338.6	77
80	62949	3341.309769408069	26
80	63006	3346.215025014858	48
80	63099	3354.524777644364	82
80	63146	3358.629754749218	40
80	63157	3359.532790981128	8
80	63242	3368.4	64
80	63284	3372.1	36
80	63324	3375.702288244524	35
80	63368	3379.503516246805	37
80	63399	3382.007874388816	24
80	63436	3385.313411046015	32
80	63463	3387.613730085578	22
80	63504	3391.123487483667	34
80	63539	3394.026326965604	28
80	63558	3395.734150444821	16
80	63628	3401.937737746175	61
80	63664	3404.944937086963	29
80	63748	3412.354148045404	73
80	63785	3415.660993411967	32
80	63831	3419.6684622067	39
80	63870	3422.96900294373	32
80	63909	3426.273763397025	32
80	63949	3429.877012376923	35
80	63978	3432.181690492497	22
80	64115	3440.5	45
80	64228	3445.7	51
80	64325	3452.207073147543	64
80	64348	3454.112579854665	18
80	64371	3456.01834401436	18
80	64429	3461.222646947112	51
80	64465	3465.8	18
80	64480	3467	11
80	64545	3472.705652421547	56
80	64573	3475.111198268751	23
80	64610	3478.21961639695	30
80	64686	3485.029362946188	67
80	64733	3489.136913703279	40
80	64758	3491.238126337571	20
80	64778	3492.840355888203	15
80	64938	3509.2	132
80	64985	3513.4	41
80	65033	3517.604753371875	41
80	65087	3522.212246919148	45
80	65123	3525.419501438903	31
80	65169	3529.424470269403	39
80	65215	3533.428730070567	39
80	65250	3536.333958370293	28
80	65282	3539.13849674335	27
80	65377	3549.1	71
80	65422	3553.1	39
80	65472	3557.509138362605	43
80	65522	3561.91664748601	43
80	65608	3569.524843281224	75
80	65667	3574.634684374745	50
80	65720	3579.334973050281	46
80	65800	3586.340205253525	69
80	65851	3590.848398121094	44
80	65898	3594.958393274787	40
80	66100	3605.8	78
80	66203	3610.5	46
80	66249	3612.504239903637	19
80	66285	3614.111444943749	15
80	66324	3615.916766631425	17
80	66384	3618.519590623724	25
80	66426	3620.424970019707	18
80	66464	3622.125180192243	16
80	66563	3630.630185046433	84
80	66698	3638.6	46
80	66827	3644.4	57
80	66879	3646.807572032546	23
80	66984	3651.715083308613	48
80	67024	3653.521823890287	17
80	67134	3658.429152246712	48
80	67254	3663.930191106575	54
80	67369	3669.13612681057	51
80	67440	3672.342762398188	31
80	67561	3677.948562803409	55
80	67607	3679.956449357681	19
80	67661	3682.356963881629	23
80	67689	3683.657972699135	12
80	67751	3688.566616577383	48
80	67814	3694.069981740306	54
80	67849	3699.8	18
80	67923	3706.3	64
80	67955	3709.10569199302	27
80	67977	3710.905904086639	17
80	68031	3715.712549404037	47
80	68137	3725.112850239233	93
80	68217	3733.8	58
80	68245	3736.1	22
80	68272	3738.404130113578	22
80	68316	3742.206916435115	37
80	68439	3753.311511051634	110
80	68465	3755.516434172135	21
80	68510	3759.424480327278	38
80	68618	3770.2	82
80	68680	3775.9	56
80	68722	3779.509037772384	35
80	68793	3785.816035764202	62
80	68814	3787.516097677374	16
80	68851	3790.625729678082	30
80	68888	3793.935676375042	32
80	68927	3797.244342067936	32
80	69018	3805.350214857883	80
80	69052	3808.156374297086	27
80	69085	3811.063987656836	28
80	69149	3818.4	44
80	69195	3822.5	40
80	69214	3824.004539234919	14
80	69244	3826.60475998456	25
80	69274	3829.209751446583	25
80	69301	3831.516979857837	22
80	69343	3835.118367480188	35
80	69356	3836.025294211187	8
80	69395	3839.531747275222	34
80	69715	3855.2	132
80	69836	3861.8	65
80	69879	3865.506377208156	36
80	69945	3871.312508461086	57
80	70003	3876.315768087109	49
80	70042	3879.824855372685	34
80	70094	3884.233136760737	43
80	70167	3889.7	17
80	70212	3891.8	20
80	70243	3893.109167146093	12
80	70291	3895.217104124854	20
80	70329	3896.917247589692	16
80	70349	3897.818772221713	8
80	70379	3899.12763100066	12
80	70590	3909.8	78
80	70735	3916.5	66
80	70825	3920.606093853726	40
80	70924	3927.108978357759	64
80	70974	3931.514024388887	43
80	71002	3933.919591611422	23
80	71031	3936.221035301476	22
80	71091	3941.627424148831	53
80	71167	3948.233611871073	65
80	71251	3955.833983242601	75
80	71318	3962.5	45
80	71394	3969.4	68
80	71450	3974.206166188039	47
80	71485	3977.312370864171	30
80	71532	3981.420837904114	40
80	71567	3984.327416489489	28
80	71614	3988.43297520208	40
80	71623	3989.139354975114	6
80	71641	3990.548139500275	13
80	71719	3997.556423588191	69
80	71865	4010.3	103
80	71948	4017.9	75
80	71960	4018.700621483959	7
80	71983	4020.607521720335	18
80	72010	4022.908160677449	22
80	72109	4031.808733617802	88
80	72176	4037.714596439552	58
80	72207	4040.222399689146	24
80	72230	4042.12841384531	18
80	72306	4048.931704420503	67
80	72369	4054.433611222393	54
80	72508	4062.7	47
80	72535	4063.9	11
80	72571	4065.408551260633	14
80	72617	4068.709367798007	32
80	72685	4074.715030403364	59
80	72720	4077.819932177915	30
80	72759	4081.127055670358	32
80	72856	4089.835222277836	86
80	72874	4091.239186208461	13
80	72905	4093.949029494089	26
80	72925	4095.551997052228	15
80	73002	4102.257547600587	66
80	73132	4116.2	102
80	73143	4117.2	9
80	73180	4120.303308696609	30
80	73193	4121.407092570221	10
80	73232	4124.716574184997	32
80	73302	4130.918468516047	61
80	73321	4132.427286746727	14
80	73368	4139	30
80	73409	4142.6	35
80	73458	4146.901534953436	42
80	73504	4150.904745456392	39
80	73510	4151.307240817169	3
80	73545	4154.208804513001	28
80	73594	4158.518050368527	42
80	73630	4161.725442989462	31
80	73665	4164.634390659183	28
80	73796	4172.4	44
80	73863	4175.5	30
80	74028	4183.109767736447	75
80	74082	4185.616152733784	24
80	74113	4187.723403177555	20
80	74147	4190.526713890591	27
80	74179	4193.335533138221	27
80	74212	4197.8	18
80	74276	4203.5	56
80	74345	4209.608595555087	60
80	74357	4210.415569461295	7
80	74382	4212.521085424946	20
80	74453	4218.824963187655	62
80	74466	4219.929967680082	10
80	74507	4223.437982014512	34
80	74522	4224.547979255329	10
80	74544	4226.355909246153	17
80	74574	4228.959496221388	25
80	74599	4231.060746605118	20
80	74729	4238.3	43
80	74816	4242.2	38
80	74922	4247.204189837141	49
80	74976	4249.704675454075	24
80	75059	4254.908243306261	51
80	75089	4257.513906663246	25
80	75101	4258.314849916428	7
80	75116	4259.623006635654	12
80	75347	4267.5	55
80	75481	4271.6	40
80	75604	4275.506346875419	38
80	75656	4277.811300532679	22
80	75687	4279.114440624523	12
80	75777	4283.221010967157	40
80	75870	4287.423366343352	41
80	76047	4296.2	62
80	76114	4299.4	31
80	76146	4300.807711496546	13
80	76201	4303.313589142658	24
80	76235	4306.114537350492	27
80	76289	4310.915786324435	47
80	76335	4314.919798499767	39
80	76460	4328	100
80	76489	4330.6	25
80	76518	4333.107289675716	24
80	76578	4338.312369921554	51
80	76626	4342.51986903005	41
80	76653	4344.828518754734	22
80	76706	4349.533863857142	46
80	76760	4354.136252234473	45
80	76796	4357.345402340222	31
80	76844	4361.547048133233	41
80	76898	4366.150048253765	45
80	77087	4377.1	71
80	77178	4381.3	41
80	77236	4383.903902797501	25
80	77340	4388.706022524901	47
80	77395	4391.211168825889	24
80	77441	4395.214631797859	39
80	77478	4398.323390670098	30
80	77516	4401.723995349042	33
80	77564	4405.926713224801	41
80	77656	4414.8	68
80	77689	4417.8	29
80	77718	4420.104953711244	22
80	77763	4424.007715396873	38
80	77801	4427.410183670142	33
80	77874	4433.910504973992	64
80	77948	4440.320346537679	63
80	77986	4443.724003885392	33
80	78011	4445.831300803254	20
80	78042	4448.333568454399	24
80	78103	4453.837301758416	54
80	78154	4458.141632402176	42
80	78229	4464.845334798444	66
80	78276	4468.94934507761	40
80	78367	4477.052346239107	80
80	78376	4477.753752575552	6
80	78504	4490	100
80	78534	4492.7	26
80	78564	4495.307030632933	25
80	78594	4497.908408324799	25
80	78631	4501.012458790246	30
80	78749	4511.618330695597	105
80	78809	4516.823750968399	51
80	78826	4518.127418866071	12
80	78833	4518.632498002431	4
80	78873	4522.035999186645	33
80	78902	4524.538024720242	24
80	78990	4532.347047631069	77