file 164980 1369149732                                          
version 2
run Join-4-20130429-12:49:17-17679
attr configname Join
attr datetime 20130429-12:49:17
attr experiment "\"Join\""
attr inifile omnetpp.ini
attr iterationvars $0=32
attr iterationvars2 "$0=32, $repetition=4"
attr measurement $0=32
attr network Network
attr processid 17679
attr repetition 4
attr replication #4
attr resultdir results
attr runnumber 4
attr seedset 4
vector 4  Network.dyn_peer[0]  lookupHopsSig:vector  ETV
4	434 164546 272 53278 20.316657743946 5295.132428453004 6752 0 7 16952 53452
