version 2
run Join-47-20130429-12:50:42-17679
attr configname Join
attr datetime 20130429-12:50:42
attr experiment "\"Join\""
attr inifile omnetpp.ini
attr iterationvars $0=512
attr iterationvars2 "$0=512, $repetition=7"
attr measurement $0=512
attr network Network
attr processid 17679
attr repetition 7
attr replication #7
attr resultdir results
attr runnumber 47
attr seedset 47

vector 47  Network.dyn_peer[0]  lookupHopsSig:vector  ETV
47	1680	20.4	24
47	1684	20.7	2
47	1693	21.406707691873	6
47	1710	22.708713467811	12
47	1724	23.915772144527	11
47	1735	24.62182588004	6
47	1741	25.026922289391	3
47	1757	26.234870856622	11
47	1766	26.93829558827	6
47	1772	27.346108667396	3
47	1783	28.053355176951	6
47	1816	33.6	16
47	1829	34.6	9
47	1847	36.009566940844	13
47	1852	36.311510859815	2
47	1865	37.416209691738	10
47	1882	38.720250009657	12
47	1891	39.422879408779	6
47	1898	39.929753609888	4
47	1915	41.235522994314	12
47	1938	44.7	7
47	1962	46.8	20
47	1978	48.002457259343	11
47	1988	48.806917171502	7
47	2004	50.008376402743	11
47	2016	51.014575724589	9
47	2027	51.922184107123	8
47	2040	52.824912081713	8
47	2061	56.5	5
47	2071	57.4	8
47	2076	57.704554576331	2
47	2090	58.714481676774	9
47	2098	59.324128523237	5
47	2111	60.224846314765	8
47	2126	61.52728502329	12
47	2149	63.435739205072	18
47	2169	66.2	2
47	2185	67.7	14
47	2196	68.407020043255	6
47	2206	69.214522334571	7
47	2228	71.019781560989	17
47	2312	76.3	23
47	2325	77.5	11
47	2343	78.909874584795	13
47	2361	80.319536068613	13
47	2382	82.025053667436	16
47	2394	83.02936844158	9
47	2411	84.336834855536	12
47	2421	85.143633229315	7
47	2431	85.944870146607	7
47	2450	87.448826389732	14
47	2477	90.9	9
47	2492	92.1	11
47	2505	93.203955442591	10
47	2518	94.113802829221	8
47	2531	95.222042666407	10
47	2546	96.331139654068	10
47	2557	97.234580073438	8
47	2586	101.4	14
47	2595	102	5
47	2600	102.30474437182	2
47	2612	103.313956458234	9
47	2630	104.716220638151	13
47	2643	105.824780793622	10
47	2654	106.526405044145	6
47	2676	108.328826692537	17
47	2686	109.130531202773	7
47	2691	109.430558615344	2
47	2705	110.436848925641	9
47	2766	114.9	9
47	2787	115.9	9
47	2815	117.001741099257	10
47	2836	118.004650613886	9
47	2850	119.208136960935	11
47	2867	120.514149698178	12
47	2881	121.721526414589	11
47	2893	122.527401351828	7
47	2902	123.227671252474	6
47	2911	123.934173537419	6
47	2929	125.344017981652	13
47	2963	129.6	16
47	2974	130.4	7
47	2990	131.804862393816	13
47	2998	132.208388702701	3
47	3007	132.910400788305	6
47	3019	133.914706268099	9
47	3035	135.123492612943	11
47	3052	136.426106265924	12
47	3058	136.833444324644	3
47	3064	137.237540188222	3
47	3084	138.841752363932	15
47	3119	143.8	18
47	3132	144.8	9
47	3140	145.401899963824	5
47	3146	145.805119977658	3
47	3155	146.309595242074	4
47	3170	147.618419358482	12
47	3185	148.721014697538	10
47	3199	149.927147705927	11
47	3206	150.229419945592	2
47	3219	151.333038456402	10
47	3255	154.334141096309	29
47	3296	160.1	21
47	3305	160.9	7
47	3324	162.402578838698	14
47	3332	163.010883016143	5
47	3352	164.610948505999	15
47	3362	165.413661869917	7
47	3381	166.913663794432	14
47	3402	168.614197872352	16
47	3428	170.817255648694	21
47	3457	175.1	11
47	3469	176	8
47	3482	177.10171435744	10
47	3501	178.606646679597	14
47	3510	179.311039280622	6
47	3538	181.715708237682	23
47	3603	185.3	13
47	3630	186.4	10
47	3636	186.603489458956	1
47	3650	187.110736196261	4
47	3665	187.719024909507	5
47	3692	188.720166724131	9
47	3712	189.522453795477	7
47	3741	190.727995725235	11
47	3801	195.4	14
47	3814	196.4	9
47	3831	197.900277291268	14
47	3858	200.000616517122	20
47	3875	201.509468950518	14
47	3886	202.21945764258	6
47	3908	204.028592716501	17
47	3912	204.233388989764	1
47	3983	209.3	13
47	3992	209.7	3
47	4008	210.200628077746	4
47	4026	211.502379912759	12
47	4043	212.802502164039	12
47	4048	213.106836754015	2
47	4064	214.314417274316	11
47	4085	218.6	6
47	4097	219.7	10
47	4111	220.7062673352	9
47	4139	223.110160578833	23
47	4154	224.212282167327	10
47	4164	225.020416816937	7
47	4186	226.828631134802	17
47	4197	227.730359677805	8
47	4214	229.035836860041	12
47	4229	230.138830414048	10
47	4253	234.8	8
47	4281	237.3	24
47	4301	238.90821462552	15
47	4312	239.810092574429	8
47	4322	240.419399954645	5
47	4353	245.3	13
47	4370	246.7	13
47	4381	247.607947932104	8
47	4397	248.808927758847	11
47	4406	249.512920065912	6
47	4421	250.616773269889	10
47	4426	250.91854953367	2
47	4475	255.1	11
47	4482	255.7	5
47	4489	256.005452635674	2
47	4509	257.81494137097	17
47	4532	259.715301176943	18
47	4546	260.718418533094	9
47	4560	261.919033851413	11
47	4573	262.825027609014	8
47	4613	268	20
47	4623	268.9	8
47	4639	270.108289046112	11
47	4664	272.210541246825	20
47	4687	274.113193705799	18
47	4707	275.920583202091	17
47	4718	276.623627226505	6
47	4742	278.626486990552	19
47	4749	279.136211199364	4
47	4785	283.8	18
47	4800	285	11
47	4818	286.408343879233	13
47	4834	287.808665384004	13
47	4853	289.312017419702	14
47	4864	290.013696847535	6
47	4878	291.213864580909	11
47	4891	292.122897607899	8
47	4906	293.432704208214	12
47	4942	297.8	18
47	4952	298.5	6
47	4959	299.009187243012	4
47	4968	299.714205093699	6
47	4979	300.42025786656	6
47	4986	300.92774066889	4
47	5005	302.428156836922	14
47	5015	303.231680751442	7
47	5029	304.238252451411	9
47	5037	304.845421436462	5
47	5049	305.846725091622	9
47	5063	306.853726297113	9
47	5076	307.960598600233	10
47	5123	312.7	27
47	5145	314.6	18
47	5153	315.209489997378	5
47	5169	316.409813997921	11
47	5177	317.016027524309	5
47	5194	318.325258553983	12
47	5211	319.826983807268	14
47	5228	321.13111352061	12
47	5246	322.53953478247	13
47	5260	323.7398085658	11
47	5269	324.245574346788	4
47	5285	325.6471733668	13
47	5297	326.45432807865	7
47	5312	327.762445971326	12
47	5342	331.2	12
47	5357	332.4	11
47	5371	333.607778318806	11
47	5401	336.013099438461	23
47	5422	337.923018116952	18
47	5439	339.230723064046	12
47	5448	339.933173034405	6
47	5462	340.936229549739	9
47	5477	342.046069851812	10
47	5495	343.655045731166	15
47	5526	346.158952866544	24
47	5551	350.7	7
47	5557	351.2	4
47	5565	351.807728417741	5
47	5584	353.22414104915	13
47	5599	354.330258570842	10
47	5609	355.131945870621	7
47	5614	355.438761532937	2
47	5643	359.1	11
47	5661	360.6	14
47	5670	361.303662244796	6
47	5675	361.604355970096	2
47	5685	362.211638480288	5
47	5721	365.418297884597	31
47	5739	366.818995302992	13
47	5750	367.722672589204	8
47	5766	368.92354579894	11
47	5777	369.825416279171	8
47	5796	371.331801955258	14
47	5813	372.635551230549	12
47	5825	373.643682660693	9
47	5840	374.7506069928	10
47	5852	375.752325575734	9
47	5873	377.455299536728	16
47	5952	382.1	21
47	5962	383	8
47	5973	383.906995435364	8
47	5984	384.607759148464	6
47	5998	385.80989457786	11
47	6014	387.012296262741	11
47	6022	387.622119154596	5
47	6033	388.326856783359	6
47	6046	389.434988844667	10
47	6126	393.8	18
47	6179	396.1	22
47	6199	397.003325106424	8
47	6230	399.213189996461	21
47	6243	400.115581969808	8
47	6254	401.015895460185	8
47	6264	401.817810236564	7
47	6286	403.618805602522	17
47	6316	407.2	12
47	6339	409.2	19
47	6356	410.50631198348	12
47	6371	411.815067578372	12
47	6400	414.123613204925	22
47	6426	416.325959993306	21
47	6451	418.430025084545	20
47	6462	419.336385263472	8
47	6480	420.736907865237	13
47	6501	422.439803700288	16
47	6529	427	10
47	6536	427.6	5
47	6575	430.90976636724	32
47	6584	431.611037547303	6
47	6593	432.116559641068	4
47	6601	432.71804852897	5
47	6628	435.026998103216	22
47	6661	439.5	15
47	6670	440.1	5
47	6679	440.807059650726	6
47	6698	442.309348481143	14
47	6716	443.913998990048	15
47	6730	444.920808479735	9
47	6747	446.230787986456	12
47	6755	446.836981930515	5
47	6773	448.242152215311	13
47	6830	453.8	18
47	6842	454.7	8
47	6866	456.706385030357	19
47	6876	457.510462438952	7
47	6890	458.520347912666	9
47	6903	459.622649728344	10
47	6923	461.223570902215	15
47	6937	462.22941280107	9
47	6950	463.333226607881	10
47	6974	465.342106263676	19
47	7033	468.9	9
47	7056	469.9	9
47	7064	470.109285221239	1
47	7084	470.917049430985	7
47	7104	471.720330561051	7
47	7120	472.923684657831	11
47	7124	473.124490918775	1
47	7134	473.928817899696	7
47	7147	474.834543449157	8
47	7154	475.342031277576	4
47	7179	477.44980490199	20
47	7186	477.955509874401	4
47	7214	481	10
47	7236	482.9	18
47	7245	483.60171583571	6
47	7258	484.511515206822	8
47	7270	485.520036008999	9
47	7297	488.9	9
47	7308	489.9	9
47	7325	491.202059099643	12
47	7346	492.90740580581	16
47	7363	494.21025673128	12
47	7373	495.012881728203	7
47	7393	496.615075027481	15
47	7404	497.516431814885	8
47	7413	498.024546816899	4
47	7450	503.9	19
47	7479	506.3	23
47	7491	507.302072985719	9
47	7508	508.6078121948	12
47	7519	509.511530109191	8
47	7530	510.213863783086	6
47	7552	512.023617596131	17
47	7562	512.828471129178	7
47	7581	514.333068264159	14
47	7617	519.8	18
47	7633	521.1	12
47	7641	521.708532717102	5
47	7656	522.817337133979	10
47	7678	524.618051418907	17
47	7693	525.92732886997	12
47	7707	526.936495970333	9
47	7716	527.636898338493	6
47	7721	527.946498449166	2
47	7737	529.146869491718	11
47	7753	530.347465890154	11
47	7778	534.9	9
47	7788	535.8	8
47	7812	537.800043279624	19
47	7819	538.104538228213	2
47	7861	544.2	22
47	7883	546.1	18
47	7890	546.608164877849	4
47	7896	547.014281942203	3
47	7917	550.3	3
47	7928	551.3	9
47	7942	552.30771928033	9
47	7958	553.70844222721	13
47	7975	555.010139137299	12
47	7990	556.111104425999	10
47	8001	557.018885873848	8
47	8017	558.226435624964	11
47	8028	559.134876105585	8
47	8041	560.04239868435	8
47	8079	566	20
47	8091	567.1	10
47	8099	567.709676920066	5
47	8109	568.318041223096	5
47	8119	569.126623472691	7
47	8134	570.234462176781	10
47	8156	572.041063250592	17
47	8166	572.850121757988	7
47	8175	573.551695646973	6
47	8188	574.458168898204	8
47	8197	575.158383087245	6
47	8204	575.659633450486	4
47	8223	577.162855699552	14
47	8263	582.2	22
47	8279	583.7	14
47	8292	584.606375159765	8
47	8303	585.513674855802	8
47	8317	586.519580485265	9
47	8327	587.320735423602	7
47	8349	589.120793608338	17
47	8379	593.2	12
47	8383	593.5	2
47	8388	593.708938571598	1
47	8422	596.515081330299	27
47	8435	597.623886329234	10
47	8451	598.825855905851	11
47	8467	600.031718532608	11
47	8471	600.241589140223	1
47	8485	601.447221726918	11
47	8490	601.754074342924	2
47	8516	605	10
47	8526	605.9	8
47	8532	606.101813721489	1
47	8544	607.106921650215	9
47	8554	607.907897986222	7
47	8572	609.314055247445	13
47	8601	611.823226958586	24
47	8611	612.431454973246	5
47	8634	614.333395382039	18
47	8719	620	20
47	8732	620.6	5
47	8742	620.902628951373	2
47	8750	621.508443164029	5
47	8762	622.313568498678	7
47	8769	622.815169341663	4
47	8788	624.319770599409	14
47	8797	625.02327371812	6
47	8804	625.531637153039	4
47	8810	625.941031667976	3
47	8823	626.846653963499	8
47	8827	627.054384579189	1
47	8837	627.858549460133	7
47	8850	628.767414678819	8
47	8856	629.169255765964	3
47	8861	629.472565925194	2
47	8873	630.27401135402	7
47	8909	635.1	11
47	8916	635.7	5
47	8925	636.20245378318	4
47	8933	636.810201555071	5
47	8950	638.117299546354	12
47	8959	638.820974145477	6
47	8978	640.322359973524	14
47	8986	640.928709084525	5
47	9017	643.632288686105	26
47	9032	644.737204664913	10
47	9064	647.543575058344	27
47	9090	650.8	8
47	9101	651.8	9
47	9111	652.409534497358	5
47	9120	653.114447246039	6
47	9136	654.323418740256	11
47	9141	654.623485458826	2
47	9149	655.227147446903	5
47	9164	656.327234211337	10
47	9195	661.3	13
47	9211	662.6	12
47	9246	665.700318336104	30
47	9264	667.100729509283	13
47	9273	667.802237869308	6
47	9284	668.505857293224	6
47	9293	669.212085198394	6
47	9311	670.616514518926	13
47	9322	671.519376721986	8
47	9340	672.923305490294	13
47	9357	674.233284214257	12
47	9368	675.138215080473	8
47	9385	676.445797722005	12
47	9412	681	10
47	9421	681.8	7
47	9439	683.200283330588	13
47	9452	684.10288251145	8
47	9459	684.611558882593	4
47	9473	685.818439681321	11
47	9484	686.526679709877	6
47	9500	687.931034756423	13
47	9524	690.6	6
47	9532	691.3	6
47	9538	691.702556744939	3
47	9547	692.210068914514	4
47	9556	692.912013294902	6
47	9563	693.412372041798	4
47	9570	693.914325792625	4
47	9596	697.1	11
47	9609	698.1	9
47	9621	699.104329151087	9
47	9649	701.506216763187	23
47	9655	701.915686844341	3
47	9672	703.220178109799	12
47	9680	703.82811434437	5
47	9702	705.631751043579	17
47	9726	708.6	6
47	9734	709.3	6
47	9747	710.203297325461	8
47	9758	711.10651509589	8
47	9764	711.511611134188	3
47	9780	712.713458951752	11
47	9790	713.513867960009	7
47	9800	714.114606955535	5
47	9823	716.01463071562	18
47	9833	716.819176712936	7
47	9854	718.526645523527	16
47	9881	722.9	9
47	9900	724.5	15
47	9910	725.308779574912	7
47	9927	726.60965637067	12
47	9951	728.610309941872	19
47	9964	729.71408031144	10
47	9985	731.42382833374	16
47	10016	735.3	13
47	10026	736	6
47	10038	737.008218607094	9
47	10048	737.817666310881	7
47	10060	738.618167753099	7
47	10066	739.024350283807	3
47	10073	739.525639707606	4
47	10091	742.3	3
47	10099	743	6
47	10121	744.802492405604	17
47	10127	745.209418063498	3
47	10132	745.514697029284	2
47	10162	749.2	12
47	10177	750.4	11
47	10191	751.605430574428	11
47	10205	752.607859689979	9
47	10218	753.716252270421	10
47	10236	755.123333968348	13
47	10252	756.329252811621	11
47	10261	757.037109551457	6
47	10276	758.142802666865	10
47	10290	759.345220627816	11
47	10305	760.45360939229	10
47	10340	765.7	17
47	10348	766.2	4
47	10360	767.209041807397	9
47	10388	769.618505945086	23
47	10397	770.123790148821	4
47	10424	772.4282359503	22
47	10431	772.93643140997	4
47	10455	776.9	9
47	10461	777.4	4
47	10474	778.30001323129	8
47	10500	780.505813170321	21
47	10511	781.407447249713	8
47	10527	782.608804744741	11
47	10542	783.917154608017	12
47	10556	784.92053840951	9
47	10571	786.029264021575	10
47	10578	786.533493793963	4
47	10583	786.834014602703	2
47	10595	787.839788852086	9
47	10610	788.942365772911	10
47	10620	789.749597748143	7
47	10632	790.55351686638	7
47	10665	795.5	15
47	10675	796.2	6
47	10690	797.503737475227	12
47	10704	798.512557014766	9
47	10714	799.315394348654	7
47	10727	800.225257447138	8
47	10741	801.428371460435	11
47	10769	805.3	13
47	10772	805.5	1
47	10788	806.701993081988	11
47	10794	807.108384714083	3
47	10809	808.20984117117	10
47	10827	809.8192856533	15
47	10844	811.120106335006	12
47	10871	815.2	12
47	10887	816.5	12
47	10894	817.005528861433	4
47	10911	818.308834365468	12
47	10916	818.618722913399	2
47	10943	820.927806062014	22
47	10963	822.535281081036	15
47	10988	824.637261311823	20
47	11013	828.7	7
47	11032	830.3	15
47	11047	831.605480745807	12
47	11067	833.215433819284	15
47	11084	834.522228822677	12
47	11096	835.528945444339	9
47	11113	836.829758209615	12
47	11119	837.232714995395	3
47	11126	837.737685228516	4
47	11151	840.7	7
47	11155	841	2
47	11162	841.503835124468	4
47	11167	841.813549704443	2
47	11173	842.022400337779	1
47	11184	842.9279656388	8
47	11196	843.934933890387	9
47	11210	844.938509550388	9
47	11218	845.547921291664	5
47	11233	846.651916376335	10
47	11240	847.156585821363	4
47	11253	848.058113281743	8
47	11292	854.1	21
47	11304	855.2	10
47	11316	856.008453658942	7
47	11324	856.613115234693	5
47	11335	857.519677096764	8
47	11341	857.925386963973	3
47	11359	859.325412608741	13
47	11370	860.026630190498	6
47	11383	861.129335677084	10
47	11406	864.5	5
47	11412	865	4
47	11421	865.705360383519	6
47	11432	866.413572785101	6
47	11447	867.722675522704	12
47	11458	868.424461770437	6
47	11472	869.631858512079	11
47	11501	873.1	11
47	11514	874.1	9
47	11518	874.306739646827	1
47	11526	874.90679378922	5
47	11530	875.116072126961	1
47	11538	875.720657163894	5
47	11592	881.4	34
47	11606	882.5	10
47	11617	883.402219767442	8
47	11629	884.212054220556	7
47	11644	885.51474950594	12
47	11664	887.11713421474	15
47	11677	888.025567781101	8
47	11688	888.935310458659	8
47	11700	889.938313472274	9
47	11716	891.146033032628	11
47	11742	894.8	8
47	11757	896	11
47	11769	897.004939258198	9
47	11785	898.2096922357	11
47	11796	899.112280337984	8
47	11805	899.8157321226	6
47	11818	900.716708583739	8
47	11844	905.1	11
47	11852	905.8	6
47	11864	906.601511865202	7
47	11874	907.405166146033	7
47	11891	908.713616131136	12
47	11905	909.917992372274	11
47	11914	910.426820050534	4
47	11929	911.735322275424	12
47	11952	914.5	5
47	11961	915.3	7
47	11977	916.503201176011	11
47	11992	917.809463737198	12
47	12023	920.310783604016	24
47	12036	921.41921745934	10
47	12042	921.825505823855	3
47	12057	922.929617117018	10
47	12074	924.239245916945	12
47	12087	925.348022225606	10
47	12117	927.951006951979	25
47	12148	931.3	13
47	12161	932.3	9
47	12175	933.504309389246	11
47	12185	934.106207116674	5
47	12198	935.209961469712	10
47	12210	936.015308401473	7
47	12215	936.322870785151	2
47	12228	937.424368649985	10
47	12240	938.228228825589	7
47	12269	943.1	11
47	12277	943.8	6
47	12288	944.503325402028	6
47	12296	945.103775375554	5
47	12315	946.608750565954	14
47	12324	947.314957493111	6
47	12331	947.822703548714	4
47	12347	949.023593198452	11
47	12357	949.827603573903	7
47	12372	950.937092684648	10
47	12388	952.146063663697	11
47	12402	953.35518755879	11
47	12439	957.9	19
47	12454	959.1	11
47	12463	959.80233814731	6
47	12478	960.908819219032	10
47	12497	962.412152468177	14
47	12505	963.017422385701	5
47	12519	964.023299727845	9
47	12541	968.4	4
47	12552	969.4	9
47	12566	970.40342980901	9
47	12571	970.709795244152	2
47	12584	971.812634597446	10
47	12596	972.616755758691	7
47	12603	973.118385828993	4
47	12630	976.9	9
47	12638	977.6	6
47	12658	979.206098691436	15
47	12665	979.713208992	4
47	12677	980.513844062351	7
47	12687	981.322960681014	7
47	12719	985.4	14
47	12730	986.2	7
47	12740	987.002605913542	7
47	12759	988.503488357653	14
47	12764	988.805223483747	2
47	12793	991.314360193248	24
47	12821	995	10
47	12834	996	9
47	12847	997.1089395743	10
47	12861	998.109472042356	9
47	12871	998.919103436352	7
47	12881	999.726991427941	7
47	12900	1001.229730594758	14
47	12917	1002.53063729822	12
47	12945	1007	10
47	12962	1008.4	13
47	12979	1009.906594704033	14
47	12997	1011.309829908937	13
47	13027	1013.916299589212	25
47	13039	1014.71734500781	7
47	13063	1016.719801980644	19
47	13077	1017.927869542981	11
47	13086	1018.433906636798	4
47	13099	1019.540501594672	10
47	13115	1020.746609565001	11
47	13133	1022.152651203174	13
47	13150	1023.655994825786	14
47	13177	1027	10
47	13183	1027.5	4
47	13200	1028.805775647442	12
47	13204	1029.006384978593	1
47	13222	1030.415463186128	13
47	13228	1030.823107201902	3
47	13239	1031.730114790909	8
47	13278	1036.2	22
47	13301	1038.2	19
47	13307	1038.606872342983	3
47	13314	1039.109402307981	4
47	13330	1040.309473329185	11
47	13343	1041.411943913256	10
47	13350	1041.915810635555	4
47	13363	1042.820662734098	8
47	13405	1048.2	22
47	13413	1048.9	6
47	13420	1049.405724479481	4
47	13430	1050.015477815972	5
47	13436	1050.41880401664	3
47	13445	1051.122362674074	6
47	13454	1051.826335243021	6
47	13475	1054.6	6
47	13483	1055.3	6
47	13499	1056.507874685535	11
47	13507	1057.109769711247	5
47	13516	1057.816997128591	6
47	13530	1058.81761102024	9
47	13552	1060.621872653684	17
47	13567	1061.92685639749	12
47	13576	1062.435274756326	4
47	13637	1066.9	9
47	13673	1068.3	13
47	13682	1069.003812730559	6
47	13696	1070.010307557545	9
47	13713	1071.518267070641	14
47	13732	1073.023034292763	14
47	13749	1074.326928817598	12
47	13828	1079.6	16
47	13847	1080.4	7
47	13857	1081.201150072102	7
47	13871	1082.20910819748	9
47	13886	1083.51154683585	12
47	13906	1085.114343397251	15
47	13919	1086.015450669968	8
47	13940	1090.6	6
47	13947	1091.2	5
47	13960	1092.100797778901	8
47	13971	1093.009770392405	8
47	13986	1094.117662887926	10
47	13999	1095.226622692291	10
47	14019	1096.826926088417	15
47	14056	1101.9	19
47	14085	1104.3	23
47	14098	1105.407240838729	10
47	14133	1108.313008751139	28
47	14144	1109.219517474936	8
47	14149	1109.525477648039	2
47	14159	1110.133252978047	5
47	14190	1115.3	13
47	14204	1116.4	10
47	14215	1117.302327280777	8
47	14250	1120.207765444858	28
47	14261	1121.108187677593	8
47	14276	1122.211381110183	10
47	14289	1123.319128630486	10
47	14296	1123.828641778187	4
47	14306	1124.433469644515	5
47	14341	1129.7	17
47	14352	1130.5	7
47	14361	1131.209948451488	6
47	14375	1132.214887110082	9
47	14393	1133.818460141819	15
47	14425	1137.4	14
47	14437	1138.3	8
47	14453	1139.704915903236	13
47	14470	1141.01289504554	12
47	14488	1142.422033783552	13
47	14511	1146.5	5
47	14521	1147.4	8
47	14548	1149.707123763714	22
47	14561	1150.612652048721	8
47	14569	1151.214655823526	5
47	14577	1151.817043376036	5
47	14590	1152.726228822862	8
47	14614	1156.6	6
47	14622	1157.3	6
47	14646	1159.307668524461	19
47	14661	1160.407937557652	10
47	14675	1161.611648911485	11
47	14693	1163.015873355579	13
47	14737	1166.6	6
47	14751	1167.9	12
47	14761	1168.508107651262	5
47	14767	1168.908237273906	3
47	14783	1170.115142324255	11
47	14792	1170.820094402169	6
47	14800	1171.428758417558	5
47	14814	1172.429976596845	9
47	14825	1173.334568122964	8
47	14832	1173.844230444842	4
47	14859	1176.9	9
47	14862	1177.1	1
47	14871	1177.80336584907	6
47	14879	1178.204143319625	3
47	14888	1178.911123409444	6
47	14892	1179.119095276336	1
47	14911	1180.622819063863	14
47	14930	1182.125624901954	14
47	14939	1182.826253833744	6
47	14960	1186.3	3
47	14965	1186.7	3
47	14975	1187.503865471945	7
47	14992	1188.808098082721	12
47	15001	1189.516533258631	6
47	15012	1190.226341675486	6
47	15022	1191.026975449184	7
47	15055	1195.8	18
47	15071	1197.1	12
47	15089	1198.503079983156	13
47	15098	1199.213047821705	6
47	15117	1200.720746136346	14
47	15134	1202.030631377998	12
47	15154	1203.834920867144	17
47	15184	1206.238812705157	23
47	15196	1207.244155539322	9
47	15253	1213.7	37
47	15260	1214.1	3
47	15279	1215.801508380062	16
47	15291	1216.610348591433	7
47	15297	1217.010580926699	3
47	15331	1221.6	16
47	15344	1222.6	9
47	15358	1223.803013560422	11
47	15366	1224.210511860856	3
47	15390	1226.21204758969	19
47	15417	1228.513115757122	22
47	15441	1230.515015756436	19
47	15450	1231.224740685764	6
47	15464	1232.234197225118	9
47	15475	1233.143494129361	8
47	15492	1234.448792684656	12
47	15496	1234.653288951975	1
47	15536	1240	20
47	15544	1240.7	6
47	15562	1242.103392309311	13
47	15576	1243.311532793901	11
47	15580	1243.512393426207	1
47	15611	1246.021928213556	24
47	15618	1246.531357502281	4
47	15643	1250.7	7
47	15649	1251.2	4
47	15669	1252.804158321437	15
47	15688	1254.311501656444	14
47	15698	1255.120954379846	7
47	15717	1256.628238233217	14
47	15735	1258.03758661263	13
47	15753	1259.643384940885	15
47	15767	1260.650605673415	9
47	15799	1265.4	14
47	15812	1266.4	9
47	15823	1267.307783659102	8
47	15831	1267.912924607462	5
47	15840	1268.417825115493	4
47	15851	1269.324051314925	8
47	15865	1270.327856970044	9
47	15892	1272.63412220001	22
47	15904	1273.643465537242	9
47	15917	1274.549266070916	8
47	15972	1281.7	37
47	15978	1282	2
47	15985	1282.501825930837	4
47	15989	1282.703438514822	1
47	15997	1283.304624501675	5
47	16004	1283.80810862579	4
47	16012	1284.20824570094	3
47	16050	1290.1	21
47	16064	1291.4	12
47	16077	1292.30367279709	8
47	16086	1293.007630635822	6
47	16101	1294.110605550069	10
47	16108	1294.611258931407	4
47	16122	1295.817954861163	11
47	16142	1297.424113475337	15
47	16170	1301	10
47	16184	1302.1	10
47	16198	1303.306391796127	11
47	16212	1304.313891097625	9
47	16222	1305.120257471305	7
47	16235	1306.02080105956	8
47	16245	1306.830483502753	7
47	16264	1308.334180582296	14
47	16275	1309.238479161306	8
47	16322	1314.7	27
47	16343	1316.5	17
47	16365	1318.30158408994	17
47	16371	1318.704703294151	3
47	16385	1319.913833384586	11
47	16402	1321.215919272752	12
47	16419	1322.516589168374	12
47	16447	1327	10
47	16460	1328	9
47	16468	1328.604100931216	5
47	16477	1329.311940304533	6
47	16489	1330.121622959578	7
47	16528	1333.630125989429	34
47	16532	1333.832999381608	1
47	16561	1337.1	11
47	16568	1337.7	5
47	16587	1339.206170005141	14
47	16613	1341.414017983939	21
47	16620	1341.914617116782	4
47	16639	1343.418079900655	14
47	16659	1345.026270536556	15
47	16695	1349.8	18
47	16708	1350.8	9
47	16720	1351.802261103154	9
47	16740	1353.407944369932	15
47	16753	1354.316465331082	8
47	16771	1355.919309734349	15
47	16784	1356.820417972298	8
47	16824	1362.3	23
47	16834	1363.2	8
47	16850	1364.401548243365	11
47	16861	1365.306772612698	8
47	16894	1369.5	15
47	16909	1370.7	11
47	16918	1371.402528726763	6
47	16932	1372.406311011893	9
47	16944	1373.40819442703	9
47	16974	1377.2	12
47	16982	1377.9	6
47	16995	1378.80126565892	8
47	17004	1379.507363812692	6
47	17013	1380.009068705413	4
47	17021	1380.618089959694	5
47	17030	1381.320277618617	6
47	17037	1381.821097711778	4
47	17060	1383.728077954185	18
47	17087	1387.1	11
47	17103	1388.4	12
47	17119	1389.808652355745	13
47	17135	1391.016378978357	11
47	17162	1393.318125602362	22
47	17185	1395.223376333081	18
47	17200	1396.32483433435	10
47	17213	1397.429143217865	10
47	17227	1398.432427584934	9
47	17249	1400.238634891959	17
47	17261	1401.241983429228	9
47	17289	1405.1	11
47	17302	1406.1	9
47	17318	1407.504377987771	13
47	17338	1409.112063050693	15
47	17351	1410.02195214613	8
47	17365	1411.224735164166	11
47	17374	1411.932761086403	6
47	17382	1412.336371265829	3
47	17394	1413.338812382065	9
47	17412	1414.741906315888	13
47	17417	1415.046269000064	2
47	17435	1416.449291591989	13
47	17455	1418.053496069219	15
47	17490	1423.7	17
47	17496	1424	2
47	17504	1424.603283009293	5
47	17516	1425.606253699757	9
47	17530	1426.610436352732	9
47	17537	1427.112177566493	4
47	17554	1428.413869500544	12
47	17582	1433.3	13
47	17593	1434.1	7
47	17629	1437.309764381933	31
47	17645	1438.514355986283	11
47	17652	1439.018398340013	4
47	17685	1443.5	15
47	17710	1445.7	21
47	17729	1447.201109746003	14
47	17735	1447.605420443979	3
47	17751	1448.808987842462	11
47	17764	1449.909548439773	10
47	17780	1451.113540251851	11
47	17786	1451.52198889719	3
47	17791	1451.831158623394	2
47	17811	1454.3	3
47	17820	1455.1	7
47	17838	1456.509279328305	13
47	17844	1456.912203493958	3
47	17854	1457.721080450014	7
47	17877	1459.623483734558	18
47	17886	1460.133219945036	4
47	17910	1462.136839534659	19
47	17938	1467	10
47	17951	1468	9
47	17959	1468.600213701415	5
47	17971	1469.606135543086	9
47	17985	1470.613953315512	9
47	18007	1472.419326262181	17
47	18013	1472.828826066428	3
47	18025	1473.832112454904	9
47	18036	1474.541855706529	6
47	18076	1480	20
47	18089	1481.2	11
47	18096	1481.703136160268	4
47	18108	1482.506008380294	7
47	18114	1482.914596703631	3
47	18135	1484.623126023138	16
47	18146	1485.527319101429	8
47	18159	1486.428496068367	8
47	18187	1491	10
47	18194	1491.6	5
47	18207	1492.508580761686	8
47	18218	1493.417329576203	8
47	18229	1494.127150081856	6
47	18241	1495.128581479504	9
47	18254	1496.032553685556	8
47	18290	1501.8	18
47	18319	1504.2	23
47	18336	1505.703684329148	14
47	18340	1505.904525104767	1
47	18352	1506.710868615243	7
47	18365	1507.814175105425	10
47	18372	1508.121781946462	2
47	18385	1509.230221781066	10
47	18409	1512.6	6
47	18414	1513	3
47	18424	1513.809177242307	7
47	18433	1514.311394531267	4
47	18439	1514.716896496677	3
47	18446	1515.222085401321	4
47	18461	1516.326046879816	10
47	18498	1521.9	19
47	18509	1522.7	7
47	18520	1523.603546040984	8
47	18552	1526.205065500535	25
47	18562	1527.013692072219	7
47	18577	1528.116293216742	10
47	18589	1529.117376424729	9
47	18605	1530.326723549524	11
47	18622	1531.834753823934	14
47	18635	1532.743754942574	8
47	18671	1537.9	19
47	18691	1539.6	16
47	18702	1540.306570691603	6
47	18714	1541.31440069513	9
47	18728	1542.315367565374	9
47	18741	1543.417279210128	10
47	18754	1544.321397632963	8
47	18781	1548.9	9
47	18810	1551.5	25
47	18825	1552.609779689898	10
47	18837	1553.610072152374	9
47	18852	1554.718324208414	10
47	18888	1559.8	18
47	18898	1560.5	6
47	18904	1560.906038580709	3
47	18910	1561.311200161927	3
47	18924	1562.311282170947	9
47	18930	1562.711894391175	3
47	18938	1563.312835181896	5
47	18954	1566.1	1
47	18968	1567.4	12
47	18987	1568.905455160823	14
47	19005	1570.3081157972	13
47	19015	1571.115741791477	7
47	19028	1572.019022383015	8
47	19038	1572.827917561009	7
47	19043	1573.131174484218	2
47	19058	1574.233150406646	10
47	19069	1575.137474805601	8
47	19086	1576.441074582112	12
47	19098	1577.441128967336	9
47	19111	1578.341542960332	8
47	19125	1579.549274949029	11
47	19137	1580.350815664572	7
47	19154	1581.852850674644	14
47	19178	1584.7	7
47	19189	1585.7	9
47	19198	1586.201790390987	4
47	19206	1586.81154897624	5
47	19229	1588.719516746653	18
47	19261	1593.4	14
47	19272	1594.2	7
47	19277	1594.507744762883	2
47	19284	1595.014246060822	4
47	19293	1595.721526379186	6
47	19300	1596.02605032855	2
47	19305	1596.334023358978	2
47	19326	1600.6	6
47	19344	1602.1	14
47	19356	1603.10358395538	9
47	19369	1604.012805381393	8
47	19375	1604.421943291566	3
47	19386	1605.323413207503	8
47	19407	1607.025224192363	16
47	19429	1610.7	7
47	19433	1611	2
47	19437	1611.202478345558	1
47	19461	1613.208269356253	19
47	19489	1615.61605304326	23
47	19518	1619.1	11
47	19526	1619.8	6
47	19535	1620.306617707754	4
47	19544	1621.014956927007	6
47	19558	1622.015508796836	9
47	19601	1628.3	23
47	19612	1629.3	9
47	19632	1630.900928478091	15
47	19642	1631.702354964221	7
47	19655	1632.605519821667	8
47	19666	1633.509706049624	8
47	19678	1634.315470407476	7
47	19704	1636.515606498805	21
47	19736	1641.4	14
47	19754	1642.9	14
47	19782	1645.302273255498	23
47	19790	1645.908807632578	5
47	19818	1648.109531406077	21
47	19848	1653.2	12
47	19862	1654.3	10
47	19871	1655.008797450903	6
47	19880	1655.71424058071	6
47	19892	1656.518526271645	7
47	19899	1657.027706881547	4
47	19907	1657.632664404408	5
47	19919	1658.433568047363	7
47	19944	1662.9	9
47	19959	1664.1	11
47	19977	1665.702429486718	15
47	19988	1666.406494481333	6
47	19998	1667.215976804986	7
47	20007	1667.918890370807	6
47	20021	1668.922573956904	9
47	20058	1673.9	19
47	20079	1675.7	17
47	20101	1677.504627196588	17
47	20113	1678.307478128505	7
47	20130	1679.810084997353	14
47	20144	1680.814929385811	9
47	20155	1681.721783523843	8
47	20175	1683.324693695338	15
47	20190	1684.424869060014	10
47	20198	1685.03111191425	5
47	20213	1686.13450434382	10