file 196958 1369149731                                          
version 2
run Join-21-20130429-12:49:45-17679
attr configname Join
attr datetime 20130429-12:49:45
attr experiment "\"Join\""
attr inifile omnetpp.ini
attr iterationvars $0=128
attr iterationvars2 "$0=128, $repetition=1"
attr measurement $0=128
attr network Network
attr processid 17679
attr repetition 1
attr replication #1
attr resultdir results
attr runnumber 21
attr seedset 21
vector 21  Network.dyn_peer[0]  lookupHopsSig:vector  ETV
21	441 196517 568 76864 20.2 7367.436263422673 7620 0 18 36167 220651
