version 2
run Join-89-20130429-12:58:39-17679
attr configname Join
attr datetime 20130429-12:58:39
attr experiment "\"Join\""
attr inifile omnetpp.ini
attr iterationvars $0=8192
attr iterationvars2 "$0=8192, $repetition=9"
attr measurement $0=8192
attr network Network
attr processid 17679
attr repetition 9
attr replication #9
attr resultdir results
attr runnumber 89
attr seedset 89

vector 89  Network.dyn_peer[0]  lookupHopsSig:vector  ETV
89	22227	21.507445384302	21
89	22287	26.712659384094	51
89	22306	28.214478752522	14
89	22316	29.024254310051	7
89	22326	29.829836183899	7
89	22346	31.438551286527	15
89	22365	32.939221487367	14
89	22374	33.649001130534	6
89	22561	40	40
89	22640	42.4	23
89	22830	49.303380017795	68
89	22896	52.310951679104	29
89	22950	54.715115697376	23
89	23014	57.718446040124	29
89	23028	58.428159058213	6
89	23043	59.729311662886	12
89	23113	65.935464683318	61
89	23166	71.3	33
89	23195	73.9	25
89	23236	77.40323071917	34
89	23297	82.711753327522	52
89	23361	88.317525171499	55
89	23373	89.325341374786	9
89	23418	93.234667517878	38
89	23479	98.543605774701	52
89	23557	105.546169445956	69
89	23704	111.5	35
89	23753	115.4	38
89	23823	121.607072091484	61
89	23835	122.408817473616	7
89	23886	126.911256002293	44
89	23909	128.820186804542	18
89	23972	134.326271416779	54
89	24031	139.631629517806	52
89	24092	144.933068178727	52
89	24315	156.7	87
89	24362	158.9	21
89	24432	162.104190858281	31
89	24494	164.911739454499	27
89	24545	167.117891500663	21
89	24617	170.426237081779	32
89	24685	173.526894812791	30
89	24787	180.7	47
89	24831	184.6	38
89	24922	192.70046404615	80
89	24997	199.405595137215	66
89	25063	205.212200750809	57
89	25081	206.61749816732	13
89	25136	211.519586771905	48
89	25293	226.7	127
89	25321	229.2	24
89	25364	232.908248657011	36
89	25430	238.715726974585	57
89	25458	241.121436637134	23
89	25489	243.822703757655	26
89	25535	247.827556187064	39
89	25629	256.035112578645	81
89	25677	260.245056383954	41
89	25707	262.850879745112	25
89	25739	267.4	14
89	25796	272.4	49
89	25898	281.609020167801	91
89	25915	282.918494023547	12
89	25932	284.222467029191	12
89	25946	285.428468085472	11
89	26002	290.237559504656	47
89	26017	291.541110936999	12
89	26029	292.341180696126	7
89	26079	299.2	32
89	26105	301.5	22
89	26154	305.808118345495	42
89	26186	308.415339322683	25
89	26220	311.42363720782	29
89	26246	313.624354808366	21
89	26271	315.724517560992	20
89	26304	318.425734490546	26
89	26336	321.235700380127	27
89	26352	322.442713119271	11
89	26410	327.647052092912	51
89	26477	333.552779509652	58
89	26561	340.955617762157	73
89	26637	347.757203309554	67
89	26697	352.959490882004	51
89	26831	360.6	46
89	26968	367	63
89	27042	370.304380840326	32
89	27072	371.608527701436	12
89	27098	372.717422014334	10
89	27222	378.4252409572	56
89	27327	384.333931701426	58
89	27340	385.440668733497	10
89	27365	387.547365733813	20
89	27398	390.256110460829	26
89	27409	391.158982936116	8
89	27484	397.863339469411	66
89	27911	411.5	115
89	28123	418.2	66
89	28172	419.707922410406	14
89	28279	423.01509125333	32
89	28403	426.817049465311	37
89	28520	430.526188008739	36
89	28630	434.326556550555	37
89	28758	440.134762467068	57
89	28808	442.444027333884	22
89	28862	444.744048177109	22
89	28926	447.649377075906	28
89	29038	455.3	53
89	29049	456.1	7
89	29063	457.307365228468	11
89	29079	458.516832603669	11
89	29095	459.918968698942	13
89	29114	461.420032356489	14
89	29127	462.324447218578	8
89	29234	474.4	84
89	29271	477.8	33
89	29400	489.305635250816	114
89	29447	493.407762551461	40
89	29489	497.014265963693	35
89	29532	500.714483041813	36
89	29580	506.8	28
89	29623	510.6	37
89	29672	514.908326775	42
89	29738	520.713759923988	57
89	29780	524.316133967322	35
89	29827	528.425515174873	40
89	29883	533.435086944795	49
89	29945	540.3	43
89	29990	544.3	39
89	30025	547.406578447686	30
89	30042	548.707304599522	12
89	30061	550.208572334606	14
89	30091	552.809529899275	25
89	30103	553.818694927257	9
89	30148	558.5	25
89	30192	562.4	38
89	30242	566.805610265855	43
89	30303	572.109007435305	52
89	30358	577.014566648783	48
89	30420	582.415868438299	53
89	30464	586.223662525893	37
89	30523	591.52394839386	52
89	30560	594.632150505059	30
89	30604	600.4	24
89	30637	603.4	29
89	30674	606.500340686968	30
89	30726	611.104007326687	45
89	30836	620.91056601578	97
89	30906	627.114846803663	61
89	30970	632.716590219056	55
89	31106	644.919856053595	121
89	31183	651.823342540983	68
89	31256	659.1	51
89	31315	664.3	51
89	31341	666.502332622322	21
89	31412	672.803505852421	62
89	31490	679.810550234215	69
89	31547	684.712265621956	48
89	31610	690.219655768381	54
89	31629	691.920876702585	16
89	31670	695.425325153963	34
89	31712	699.029355224612	35
89	31743	701.734161185665	26
89	31795	706.139978820896	43
89	31834	709.644711154941	34
89	31897	715.15422637076	54
89	31942	720.6	26
89	31962	722.3	16
89	31972	723.107501030468	7
89	32003	725.815444382949	26
89	32039	728.815614080832	29
89	32085	732.816885645536	39
89	32102	734.118567694411	12
89	32143	737.828269929289	36
89	32162	739.337752843933	14
89	32192	741.946492206252	25
89	32220	745.1	11
89	32289	751.3	61
89	32335	755.304896815021	39
89	32405	761.50661031	61
89	32438	764.213267729328	26
89	32477	767.719456799662	34
89	32495	769.122333754802	13
89	32580	776.625750229179	74
89	32717	788.929824045747	122
89	32880	797.9	59
89	32953	801.3	33
89	32977	802.307348513868	9
89	33047	805.511893848303	31
89	33084	807.221453141538	16
89	33111	809.528793484576	22
89	33186	816.034178191286	64
89	33287	827.7	77
89	33355	833.8	60
89	33395	837.20451442671	33
89	33446	841.706408051557	44
89	33493	845.815064522514	40
89	33560	851.720191984439	58
89	33622	857.125574349303	53
89	33761	871.4	114
89	33784	873.4	19
89	33811	875.702583558943	22
89	33851	879.106202606548	33
89	33875	881.113195639872	19
89	33900	883.218695833	20
89	33940	886.62290446008	33
89	34066	900.1	101
89	34084	901.8	16
89	34096	902.601126115873	7
89	34108	903.603753772954	9
89	34122	904.608203757194	9
89	34146	906.613946495676	19
89	34157	907.514713400945	8
89	34276	919.6	96
89	34332	924.5	48
89	34381	928.807002027542	42
89	34428	932.913866405775	40
89	34499	939.216325677152	62
89	34543	943.017877976161	37
89	34628	950.519978758129	74
89	34705	957.421888435755	68
89	34741	960.428507745836	29
89	34851	972.6	86
89	34908	977.8	51
89	34942	980.606196961689	27
89	35026	988.012331972655	73
89	35061	991.118700913253	30
89	35097	994.125973965359	29
89	35115	995.732051593259	15
89	35139	997.734625674833	19
89	35195	1002.538184659874	47
89	35241	1008.6	26
89	35306	1014.4	57
89	35337	1017.103974641226	26
89	35417	1024.112744180015	69
89	35450	1027.019675900374	28
89	35491	1030.520403948783	34
89	35517	1032.722077112396	21
89	35545	1035.129205092874	23
89	35580	1038.031023881812	28
89	35654	1044.637911694398	65
89	35698	1050.4	24
89	35763	1056.2	57
89	35831	1062.202066577132	59
89	35899	1068.202489201113	59
89	35965	1074.010098307289	57
89	35982	1075.519931761145	14
89	36010	1077.924945093993	23
89	36119	1084.9	49
89	36126	1085.5	5
89	36168	1089.102209930359	35
89	36228	1094.311331018514	51
89	36239	1095.217214744793	8
89	36275	1098.223532385072	29
89	36328	1102.923680375637	46
89	36406	1109.930362148142	69
89	36443	1113.032845293706	30
89	36483	1116.441764483951	33
89	36522	1119.949467968401	34
89	36562	1123.358000780267	33
89	36577	1124.464809599153	10
89	36645	1132.6	46
89	36657	1133.7	10
89	36686	1136.002499559044	22
89	36720	1139.004530905864	29
89	36746	1141.210718745444	21
89	36781	1144.120519275852	28
89	36835	1148.92444688559	47
89	36962	1162.2	102
89	36998	1165.5	32
89	37039	1169.002566059557	34
89	37070	1171.706989716914	26
89	37118	1175.909458311149	41
89	37151	1178.610174760194	26
89	37175	1180.611203350042	19
89	37260	1190.4	64
89	37323	1196	55
89	37350	1198.309258315197	22
89	37399	1202.609756568054	42
89	37451	1207.210124890313	45
89	37488	1210.316115591931	30
89	37544	1215.317131671751	49
89	37566	1217.125688668886	17
89	37594	1219.526572623507	23
89	37652	1224.530662792837	49
89	37682	1227.132975069642	25
89	37711	1229.633254065284	24
89	37730	1231.135945897084	14
89	37739	1231.845380223598	6
89	37792	1237.3	33
89	37807	1238.5	11
89	37858	1243.008607374562	44
89	37896	1246.210099520594	31
89	37921	1248.315034671168	20
89	37977	1253.315258010246	49
89	38026	1257.619457019229	42
89	38097	1265.2	52
89	38118	1267	17
89	38142	1269.007995697595	19
89	38179	1272.117095014189	30
89	38204	1274.223754691599	20
89	38270	1280.025599950564	57
89	38310	1283.633246788781	35
89	38356	1288.9	29
89	38416	1294.2	52
89	38427	1295.102941442721	8
89	38465	1298.312564876133	31
89	38496	1301.018448692248	26
89	38512	1302.222825885617	11
89	38573	1307.728477066256	54
89	38610	1310.836591279992	30
89	38640	1313.437550669853	25
89	38654	1314.445804980993	9
89	38699	1318.346933239001	38
89	38714	1319.656797248843	12
89	38728	1320.65927577954	9
89	38882	1329.6	56
89	38971	1333.7	40
89	39101	1339.603381776409	58
89	39165	1343.812286140965	41
89	39205	1347.221142960623	33
89	39222	1348.522421236833	12
89	39279	1353.627715703918	50
89	39321	1357.233563216024	35
89	39378	1363.9	39
89	39436	1369	50
89	39496	1374.206823627473	51
89	39644	1387.60823843442	133
89	39679	1390.515915667327	28
89	39730	1395.024961349701	44
89	39759	1397.534685919186	24
89	39822	1403.039104311691	54
89	40025	1413.7	77
89	40174	1420.6	68
89	40306	1426.703488895192	60
89	40413	1432.606763126561	58
89	40478	1438.310326095332	56
89	40543	1444.018230508681	56
89	40611	1450.018231900046	59
89	40723	1462.9	89
89	40746	1464.9	19
89	40809	1470.408237598901	54
89	40844	1473.509727865508	30
89	40886	1477.116838213111	35
89	40950	1482.720573061158	55
89	40989	1486.02148391173	32
89	41050	1491.525348456222	54
89	41114	1497.133441976878	55
89	41178	1502.734546019664	55
89	41209	1505.439594080898	26
89	41305	1510.8	28
89	41376	1514.1	32
89	41446	1517.200770394033	30
89	41550	1522.007177356979	47
89	41658	1526.913494483324	48
89	41708	1529.222171981035	22
89	41732	1530.931227844106	16
89	41765	1533.833415080066	28
89	41823	1538.842014992653	49
89	41877	1543.651528531756	47
89	41916	1546.954696910021	32
89	41970	1551.756050447361	47
89	42001	1554.26093656393	24
89	42055	1559.064063946383	47
89	42109	1563.866078617721	47
89	42176	1569.772215260364	58
89	42293	1575.7	37
89	42332	1577.5	17
89	42432	1582.004119028339	44
89	42500	1585.609061985802	35
89	42514	1586.616631036721	9
89	42560	1590.62224446667	39
89	42618	1595.831445725549	51
89	42647	1598.133659091783	22
89	42744	1609.3	73
89	42783	1612.7	33
89	42839	1617.705791806133	49
89	42883	1621.512516739153	37
89	42949	1627.314337899199	57
89	42974	1629.416733564767	20
89	43015	1632.920188899401	34
89	43048	1635.824173878207	28
89	43082	1638.630209302917	27
89	43409	1650.4	84
89	43537	1654.3	38
89	43648	1657.808628280193	34
89	43688	1659.008943388336	11
89	43779	1662.817610778472	37
89	43875	1667.224219369246	43
89	43908	1668.633445945007	13
89	43999	1672.834419566432	41
89	44046	1675.635175195927	27
89	44117	1682.9	49
89	44176	1688.1	51
89	44203	1690.404199463508	22
89	44231	1692.810003957712	23
89	44269	1696.015624876682	31
89	44422	1705.5	55
89	44439	1706.2	6
89	44529	1710.300363345893	40
89	44609	1715.408280208331	50
89	44637	1717.811366987001	23
89	44650	1718.71514172978	8
89	44698	1722.922933069234	41
89	44752	1727.724563137646	47
89	44813	1733.025324634077	52
89	44867	1737.828066522249	47
89	44910	1741.528288001493	36
89	45037	1754	100
89	45068	1756.8	27
89	45119	1761.301102177472	44
89	45149	1763.911048846451	25
89	45161	1764.715236985593	7
89	45185	1766.722445517413	19
89	45235	1771.128405148326	43
89	45249	1772.135240518874	9
89	45261	1773.138481816497	9
89	45309	1777.340613894754	41
89	45323	1778.341707480426	9
89	45349	1780.546283321769	21
89	45401	1785.147554623379	45
89	45431	1789.2	12
89	45481	1793.7	44
89	45534	1798.204148966374	44
89	45589	1803.108478192931	48
89	45615	1805.308946978318	21
89	45654	1808.617534566413	32
89	45681	1810.926670205605	22
89	45698	1812.235293131063	12
89	45721	1814.144955689131	18
89	45734	1815.250834834542	10
89	45755	1816.95683481728	16
89	45777	1818.762628353108	17
89	45816	1824	20
89	45822	1824.5	4
89	45831	1825.204587491466	6
89	45851	1826.813765217258	15
89	45905	1831.617810255769	47
89	45937	1834.220766578447	25
89	45971	1837.224486777421	29
89	45990	1838.725938043996	14
89	46032	1842.333115557016	35
89	46156	1850.1	41
89	46242	1854.5	43
89	46280	1857.900997611787	33
89	46322	1861.503736271175	35
89	46398	1868.113345203186	65
89	46414	1869.521868859867	13
89	46445	1872.026327200359	24
89	46497	1876.62851830243	45
89	46550	1881.332531062442	46
89	46586	1884.333036112511	29
89	46627	1890.1	21
89	46658	1892.9	27
89	46689	1895.608467563753	26
89	46709	1897.211339866254	15
89	46737	1899.620582587474	23
89	46770	1902.327073308168	26
89	46800	1904.931860601407	25
89	46825	1907.038297213009	20
89	46856	1909.738650084177	26
89	46887	1912.240988653778	24
89	46904	1913.742153462752	14
89	46935	1916.246958155276	24
89	47039	1925.654315667085	93
89	47073	1928.462084374779	27
89	47103	1931.065429959455	25
89	47129	1933.266181522479	21
89	47159	1935.869397448894	25
89	47201	1939.472419783516	35
89	47260	1944.572871162363	50
89	47408	1953.3	53
89	47537	1959.2	58
89	47635	1963.701872679702	44
89	47725	1967.902854157408	41
89	47827	1972.410067336471	44
89	47911	1976.21983168829	37
89	47940	1978.723925730921	24
89	47966	1980.929291601709	21
89	47992	1983.133037632046	21
89	48019	1985.441931529039	22
89	48084	1991.142937248373	56
89	48111	1993.449158374656	22
89	48188	2001.6	56
89	48246	2006.7	50
89	48310	2012.303228697709	55
89	48371	2017.807864679237	54
89	48403	2020.411701388947	25
89	48478	2027.111810802825	66
89	48543	2032.815290165215	56
89	48602	2039.9	39
89	48629	2042.1	21
89	48662	2045.001735358943	28
89	48689	2047.308533684161	22
89	48715	2049.515604789309	21
89	48762	2053.622170425044	40
89	48799	2056.726827366869	30
89	48821	2058.529423135642	17
89	48850	2061.034773074287	24
89	48908	2066.043010644191	49
89	49022	2078.9	89
89	49054	2081.8	28
89	49086	2084.400749902252	25
89	49110	2086.405870438052	19
89	49123	2087.511107410363	10
89	49181	2092.515975414184	49
89	49233	2097.123299033029	45
89	49315	2106.1	61
89	49376	2111.7	55
89	49419	2115.403447986317	36
89	49458	2118.704198188858	32
89	49533	2125.412639706492	66
89	49553	2127.019319893832	15
89	49595	2130.623614274535	35
89	49664	2136.724722643305	60
89	49697	2139.63333350293	28
89	49852	2147.5	55
89	49885	2148.9	13
89	50013	2154.706502657923	57
89	50132	2161.615902129136	68
89	50156	2163.624897230243	19
89	50396	2172.6	66
89	50491	2176.9	42
89	50553	2179.80093704055	28
89	50635	2183.509899462672	36
89	50693	2186.015966918588	24
89	50791	2190.619698188091	45
89	50837	2192.623350678843	19
89	50889	2195.031344789261	23
89	50909	2195.836305173834	7
89	51019	2200.842677453719	49
89	51176	2216.7	127
89	51289	2226.9	101
89	51331	2230.507177007426	35
89	51361	2233.107753887869	25
89	51441	2240.114815299337	69
89	51483	2243.922876097984	37
89	51529	2247.932711551052	39
89	51559	2250.334614631477	23
89	51594	2253.43706260966	30
89	51619	2256.8	8
89	51670	2261.4	45
89	51687	2262.708006183244	12
89	51730	2266.412047810097	36
89	51786	2271.420512663045	49
89	51884	2280.02841504331	85
89	51949	2288.3	43
89	51998	2292.7	43
89	52040	2296.301598706664	35
89	52089	2300.603076798612	42
89	52100	2301.505672230491	8
89	52201	2310.413970673306	88
89	52256	2315.320938035022	48
89	52306	2319.721721572035	43
89	52338	2322.323948662599	25
89	52381	2326.028221800961	36
89	52391	2326.837993207576	7
89	52499	2334.5	45
89	52527	2337	24
89	52566	2340.302083739705	32
89	52598	2343.110189940665	27
89	52638	2346.51648242666	33
89	52691	2351.218942982403	46
89	52725	2354.024527929499	27
89	52777	2361.5	35
89	52793	2362.8	12
89	52888	2371.3036773751	84
89	52911	2373.210823029454	18
89	52932	2374.916694101702	16
89	52984	2379.521268535958	45
89	53043	2384.626732550636	50
89	53099	2389.63134501978	49
89	53167	2395.639455921148	59
89	53180	2396.541558990819	8
89	53266	2404.144622131237	75
89	53309	2410.3	23
89	53329	2412	16
89	53349	2413.807975058679	17
89	53370	2415.512602365768	16
89	53405	2418.422479397972	28
89	53414	2419.130783464362	6
89	53436	2420.934699017217	17
89	53457	2422.641085597695	16
89	53477	2424.250685522355	15
89	53571	2435.2	72
89	53636	2441	57
89	53669	2443.90749876094	28
89	53711	2447.513455819554	35
89	53745	2450.315801226868	27
89	53774	2452.817284767442	24
89	53824	2457.219780567724	43
89	53852	2459.621354252097	23
89	53901	2463.926495078678	42
89	53961	2469.129518104385	51
89	54000	2472.429619751301	32
89	54058	2477.631637605173	51
89	54091	2480.337496824965	26
89	54183	2490.9	69
89	54225	2494.6	36
89	54245	2496.20504537628	15
89	54304	2501.513320255442	52
89	54371	2507.418158054293	58
89	54428	2512.322990865562	48
89	54461	2515.226536910178	28
89	54496	2518.127585085106	28
89	54519	2520.036133596894	18
89	54570	2524.54176690708	44
89	54581	2525.448617512819	8
89	54634	2531.4	34
89	54669	2534.4	29
89	54702	2537.309028870526	28
89	54731	2539.81782323986	24
89	54776	2543.718666993004	38
89	54810	2546.523214229197	27
89	54843	2549.431431348822	28
89	54904	2554.740795334663	52
89	54940	2557.949436240637	31
89	55065	2564.1	41
89	55148	2568	38
89	55246	2572.507646891989	44
89	55320	2575.908006156801	33
89	55422	2580.412623416336	44
89	55519	2585.219179640546	47
89	55570	2589.72272546917	44
89	55638	2596.9	49
89	55662	2599	20
89	55688	2601.201652023198	21
89	55766	2608.009432572305	67
89	55819	2612.710196169751	46
89	55877	2617.914435593272	51
89	55942	2623.623356136468	56
89	56007	2629.330013769844	56
89	56045	2632.534060831982	31
89	56065	2634.1430061362	15
89	56099	2637.143619433659	29
89	56157	2643.8	38
89	56206	2648	41
89	56237	2650.706512630321	26
89	56265	2653.11232126025	23
89	56302	2656.218980098028	30
89	56311	2656.927482804294	6
89	56372	2662.230711423425	52
89	56470	2673.7	77
89	56505	2676.7	29
89	56540	2679.801220137735	30
89	56569	2682.106425765202	22
89	56577	2682.713474660891	5
89	56598	2684.422022726259	16
89	56652	2689.226781839509	47
89	56690	2692.42879283989	31
89	56722	2695.233962200201	27
89	56773	2699.740771023669	44
89	56786	2700.641357831084	8
89	56834	2704.846917649817	41
89	56915	2713.9	59
89	56957	2717.6	36
89	56971	2718.600643123004	9
89	57003	2721.406307303735	27
89	57007	2721.615593424878	1
89	57032	2723.723638392662	20
89	57109	2730.424771117312	66
89	57163	2734.8	8
89	57190	2736	11
89	57431	2747.103328666959	110
89	57519	2751.104005146787	39
89	57548	2753.205481252308	20
89	57564	2754.406456760988	11
89	57586	2756.214294579322	17
89	57754	2773.8	138
89	57816	2779.3	54
89	57853	2782.40517032444	30
89	57913	2787.810061674106	53
89	57958	2791.716086277169	38
89	58047	2799.625298719218	78
89	58202	2807.5	55
89	58231	2808.7	11
89	58281	2811.004270842461	22
89	58351	2814.106448828998	30
89	58409	2816.808121403391	26
89	58495	2820.714421555896	38
89	58532	2823.718172560385	29
89	58554	2826.7	7
89	58599	2830.7	39
89	58644	2834.607974464911	38
89	58733	2842.513854192042	78
89	58785	2847.120266447144	45
89	58827	2850.725494440449	35
89	58893	2856.529292537243	57
89	58940	2860.635563874385	40
89	59002	2866.037047522203	53
89	59045	2869.937129190647	38
89	59088	2873.644310747938	36
89	59219	2880.4	44
89	59308	2884.5	40
89	59397	2888.414641002034	38
89	59457	2891.115913989971	26
89	59542	2895.220613488907	40
89	59578	2898.225070752103	29
89	59633	2903.132725685799	48
89	59678	2907.038340158773	38
89	59771	2915.345299726546	82
89	59800	2917.853780298704	24
89	59837	2920.95513873138	30
89	59878	2924.456517196395	34
89	59930	2929.057041625456	45
89	60019	2936.965556539852	78
89	60116	2942.6	26
89	60209	2947	43
89	60235	2948.005140717427	9
89	60329	2952.405355836508	43
89	60469	2958.911832838364	64
89	60578	2967.220689891402	82
89	60636	2972.230271590517	49
89	60676	2975.836423271007	35
89	60764	2983.636455121545	77
89	60803	2986.945765560303	32
89	60865	2991.2	12
89	60941	2995.5	42
89	61003	3000.907989863331	53
89	61044	3004.40851247894	34
89	61048	3004.6146794998	1
89	61061	3005.715632189727	10
89	61135	3012.115930267386	63
89	61177	3015.919804173905	37
89	61226	3020.023267158723	40
89	61233	3020.52886839124	4
89	61262	3023.033762752354	24
89	61276	3024.037688573955	9
89	61306	3026.646830890066	25
89	61392	3036.3	63
89	61404	3037.4	10
89	61445	3040.905245717959	34
89	61482	3044.007123648363	30
89	61515	3046.913981817289	28
89	61544	3049.419349291381	24
89	61566	3051.226186600681	17
89	61676	3062.7	87
89	61716	3066.2	34
89	61762	3070.203615866659	39
89	61801	3073.710625506953	34
89	61849	3077.915877023734	41
89	61881	3080.525651440784	25
89	61917	3083.731231705411	31
89	61969	3088.134814427538	43
89	62082	3098.235973882494	100
89	62118	3101.436345025189	31
89	62157	3104.741931423393	32
89	62203	3108.747220955292	39
89	62274	3116.9	49
89	62324	3121.4	44
89	62371	3125.501940137941	40
89	62427	3130.30872307683	47
89	62473	3134.310573522859	39
89	62547	3140.915265973848	65
89	62602	3145.818923432922	48
89	62655	3150.31983765212	44
89	62707	3154.920437408169	45
89	62766	3160.022113176179	50
89	62799	3162.930333309073	28
89	62839	3166.338345242384	33
89	62890	3170.838931852447	44
89	62934	3174.646961395601	37
89	62961	3176.947396419902	22
89	63056	3185.449188081118	84
89	63111	3191.5	35
89	63163	3196	44
89	63182	3197.706954509259	16
89	63226	3201.50797721662	37
89	63276	3205.917888629933	43
89	63317	3209.422717933834	34
89	63353	3212.425243811081	29
89	63403	3216.835113127385	43
89	63428	3218.943511675169	20
89	63475	3223.051622189291	40
89	63514	3226.355577869613	32
89	63548	3229.355794654185	29
89	63584	3232.364633435273	29
89	63649	3240.4	44
89	63734	3248	75
89	63776	3251.808528481542	37
89	63842	3257.618355370249	57
89	63884	3261.220455587896	35
89	63896	3262.021373699096	7
89	63905	3262.726693658526	6
89	63919	3263.934276811759	11
89	63935	3265.140371293701	11
89	63958	3267.048539417624	18
89	64206	3276.1	61
89	64406	3282.4	62
89	64544	3286.600931525167	41
89	64626	3289.201479360686	25
89	64730	3292.408179424692	31
89	64913	3298.117848718227	56
89	65014	3302.325805166515	41
89	65106	3306.530404385873	41
89	65317	3317.5	75
89	65398	3323	54
89	65406	3323.604786477917	5
89	65420	3324.612921768947	9
89	65439	3326.115917686492	14
89	65500	3331.622514614502	54
89	65600	3340.430420371675	87
89	65698	3346.9	29
89	65742	3348.9	19
89	65846	3353.700038432257	47
89	65922	3357.205105550109	34
89	65992	3360.311763582265	30
89	66192	3369.720405139448	93
89	66232	3371.422951234513	16
89	66296	3374.223341234856	27
89	66343	3378.332952304758	40
89	66388	3382.236933093299	38
89	66449	3387.743555770576	54
89	66543	3392.7	27
89	66675	3398.9	61
89	66717	3400.706104831823	17
89	66852	3407.91190096907	71
89	66930	3414.720306192596	67
89	66980	3419.12437604379	43
89	67030	3423.530311245111	43
89	67073	3427.23104927745	36
89	67109	3430.238884353573	29
89	67127	3431.84196060667	15
89	67160	3434.547606989943	26
89	67173	3435.650700910311	10
89	67258	3443.154313588091	74
89	67301	3448.3	23
89	67339	3451.8	34
89	67378	3455.103881712125	32
89	67436	3460.104725802852	49
89	67505	3466.209195064726	60
89	67534	3468.716265760737	24
89	67566	3471.516957262335	27
89	67645	3478.42369719369	68
89	67673	3480.825451228894	23
89	67727	3485.625917177361	47
89	67783	3490.427076983356	47
89	67840	3495.534365695833	50
89	67929	3503.437101504212	78
89	67985	3506.9	9
89	68113	3512.9	59
89	68239	3518.703621190646	57
89	68371	3524.807481179402	60
89	68431	3527.509013341727	26
89	68515	3531.410071069839	38
89	68629	3536.516199905901	50
89	68750	3545.1	51
89	68796	3549.2	40
89	68815	3550.70786448308	14
89	68867	3555.309932088656	45
89	68916	3559.613054895721	42
89	68941	3561.717212251963	20
89	69029	3569.527155032477	77
89	69054	3571.635320024034	20
89	69111	3576.545297529755	48
89	69163	3581.153057546628	45
89	69290	3592.455969558044	112
89	69606	3604	80
89	69628	3604.7	6
89	69688	3606.506085611199	17
89	69710	3607.113915535361	5
89	69775	3609.115267348154	19
89	69903	3613.11697615557	39
89	69976	3615.419187143711	22
89	70109	3622.1	41
89	70146	3623.9	17
89	70210	3626.708308575439	27
89	70262	3629.01034765594	22
89	70314	3631.410959919915	23
89	70415	3637.513741178294	60
89	70448	3640.218699506637	26
89	70482	3645.9	19
89	70499	3647.3	13
89	70554	3652.004051518582	46
89	70593	3655.513026824686	34
89	70612	3657.01873111219	14
89	70711	3665.921258287472	88
89	70754	3669.621832511502	36
89	70767	3670.531726303594	8
89	70834	3676.440695967972	58
89	70868	3679.449916927446	29
89	70900	3682.052601806355	25
89	70942	3685.854496492213	37
89	70991	3691	30
89	71037	3695.1	40
89	71096	3700.2038507098	50
89	71158	3705.812773108116	55
89	71204	3709.816524394132	39
89	71271	3715.717267724439	58
89	71314	3719.423765804931	36
89	71356	3723.030651382236	35
89	71397	3726.531653064354	34
89	71440	3730.240886374935	36
89	71453	3731.350191431003	10
89	71562	3742.5	85
89	71593	3745.3	27
89	71641	3749.501857210388	41
89	71695	3754.106732298389	45
89	71732	3757.40999546203	32
89	71790	3762.411867603028	49
89	71850	3767.814116928842	53
89	71870	3769.421361296157	15
89	71910	3772.82298581933	33
89	72039	3786.3	103
89	72148	3796.1	97
89	72205	3801.207080273723	50
89	72276	3807.515895932332	62
89	72285	3808.019037799619	4
89	72342	3813.127298534231	50
89	72408	3818.931476090604	57
89	72474	3824.737268411091	57
89	72502	3827.146136245045	23
89	72572	3833.356013797551	61
89	72636	3838.959309276152	55
89	72725	3844.4	24
89	72836	3849.6	51
89	72927	3855.100048544337	54
89	72987	3860.303272906842	51
89	73042	3865.213209382425	48
89	73121	3872.122679502411	68
89	73180	3877.425443520814	52
89	73278	3887.7	77
89	73317	3891.1	33
89	73337	3892.705133827086	15
89	73376	3896.014226620301	32
89	73454	3903.021078276574	69
89	73583	3913	70
89	73671	3920.9	78
89	73722	3925.404780811932	44
89	73783	3930.710144070339	52
89	73839	3935.716552647416	49
89	73900	3941.021817050178	52
89	73951	3945.525726585246	44
89	74028	3953.8	58
89	74063	3956.8	29
89	74125	3962.207457212498	53
89	74156	3964.917365636131	26
89	74186	3967.518591130056	25
89	74224	3970.727296372208	31
89	74277	3975.435677576482	46
89	74318	3978.938014816572	34
89	74341	3980.839688774859	18
89	74437	3986.8	28
89	74473	3988.4	15
89	74531	3991.101062603651	26
89	74577	3993.306332630652	21
89	74640	3998.813999350124	54
89	74680	4002.219119042499	33
89	74711	4004.923511543691	26
89	74835	4017.8	98
89	74900	4023.6	57
89	74966	4029.406000823124	57
89	74993	4031.70730961644	22
89	75025	4034.311391836885	25
89	75102	4041.213153294434	68
89	75136	4044.021942061993	27
89	75196	4049.423671212144	53
89	75208	4050.228550507955	7
89	75285	4057.135645748158	68
89	75329	4060.937526169731	37
89	75504	4070.2	62
89	75567	4073.1	28
89	75638	4077.3029684762	41
89	75702	4082.905567817987	55
89	75768	4088.711017270063	57
89	75921	4097.5	55
89	75992	4100.7	31
89	76062	4103.909887823059	31
89	76187	4109.619227205176	56
89	76277	4113.726226516755	40
89	76355	4117.32784442659	35
89	76505	4130.6	106
89	76548	4134.4	37
89	76607	4139.709622816005	52
89	76644	4142.811752705035	30
89	76674	4145.411804481375	25
89	76715	4148.917329309352	34
89	76766	4153.417495565821	44
89	76964	4161.2	52
89	76995	4162.6	13
89	77071	4166.00527924794	33
89	77125	4168.506265046237	24
89	77145	4169.406504918287	8
89	77161	4170.00853855613	5
89	77179	4170.709953615403	6
89	77255	4174.210911576145	34
89	77284	4175.520230397833	12
89	77407	4184.92246707868	93
89	77475	4192.6	46
89	77515	4196.1	34
89	77569	4200.908850528963	47
89	77631	4206.309490512734	53
89	77690	4211.612602825568	52
89	77720	4214.01628839348	23
89	77757	4217.318230949139	32
89	77824	4224.8	48
89	77865	4228.4	35
89	77954	4236.3078672408	78
89	78008	4241.113228993852	47
89	78047	4244.417455259771	32
89	78077	4247.018061701578	25
89	78117	4250.418137992419	33
89	78164	4254.524029737686	40
89	78244	4263.8	58
89	78282	4267.1	32
89	78313	4269.802245607951	26
89	78357	4273.610003441411	37
89	78431	4280.018376056192	63
89	78515	4287.627751931935	75
89	78770	4300.1	101
89	78855	4304	38
89	78929	4307.40628607555	33
89	78957	4308.613053027942	11
89	79015	4312.719941132025	40
89	79060	4316.626736993278	38
89	79104	4320.433107983978	37
89	79138	4323.438151552663	29
89	79177	4326.741820780033	32
89	79264	4334.447814220209	76
89	79337	4343.1	51
89	79379	4346.8	36
89	79407	4349.203546845398	23
89	79430	4351.108587191882	18
89	79452	4352.911437739058	17
89	79511	4358.01860361636	50
89	79561	4362.419871857791	43
89	79581	4364.028655164361	15
89	79599	4365.637314118764	15
89	79646	4369.743996851891	40
89	79686	4373.152673480405	33
89	79728	4376.762401942332	35
89	79780	4381.366560746359	45
89	79825	4385.275372755853	38
89	79862	4388.383817510695	30
89	79909	4394.8	28
89	79941	4397.7	28
89	79983	4401.306556102673	35
89	80028	4405.213361208974	38
89	80073	4409.120010009239	38
89	80098	4411.22061484414	20
89	80142	4415.02713114356	37
89	80233	4425	70
89	80257	4427.1	20
89	80277	4428.708662453813	15
89	80332	4433.616572718338	48
89	80369	4436.718774459333	30
89	80380	4437.624585418332	8
89	80421	4441.128445380203	34
89	80478	4446.036840949001	48
89	80536	4453.8	38
89	80571	4456.8	29
89	80606	4459.905684255214	30
89	80692	4467.510354230521	75
89	80751	4472.616610312395	50
89	80773	4474.42503182991	17
89	80822	4478.73015161484	42
89	80849	4481.040114486894	22
89	80904	4487.5	35
89	80920	4488.8	12
89	80937	4490.105046305439	12
89	80963	4492.30667912348	21
89	80979	4493.711505930165	13
89	81012	4496.412304777681	26
89	81041	4498.914334041877	24
89	81080	4502.223693704204	32
89	81105	4504.332893174413	20
89	81116	4505.234524527223	8
89	81174	4510.24330867721	49
89	81209	4513.345181797367	30
89	81249	4518	20
89	81279	4520.7	26
89	81314	4523.802240780678	30
89	81321	4524.109494110511	2
89	81337	4525.509694688368	13
89	81375	4528.709954703057	31
89	81425	4533.115593815611	43
89	81441	4534.321432386601	11
89	81496	4539.227402372003	48
89	81517	4540.934250462331	16
89	81554	4544.043151647801	30
89	81579	4546.143280833075	20
89	81618	4549.644938590165	34
89	81634	4550.849016423944	11
89	81663	4553.35014803317	24
89	82002	4573.6	176