version 2
run Join-73-20130429-12:52:59-17679
attr configname Join
attr datetime 20130429-12:52:59
attr experiment "\"Join\""
attr inifile omnetpp.ini
attr iterationvars $0=4096
attr iterationvars2 "$0=4096, $repetition=3"
attr measurement $0=4096
attr network Network
attr processid 17679
attr repetition 3
attr replication #3
attr resultdir results
attr runnumber 73
attr seedset 73

vector 73  Network.dyn_peer[0]  lookupHopsSig:vector  ETV
73	11433	21.008432157608	23
73	11459	23.210571430574	21
73	11484	25.317958647482	20
73	11509	27.425123904092	20
73	11533	29.431827513736	19
73	11581	33.639624510584	41
73	11636	36.9	9
73	11667	38.3	13
73	11757	42.201476467321	38
73	11823	45.211256301802	29
73	11856	46.612481755407	13
73	11874	48.014647281749	13
73	11917	51.921086323751	38
73	11961	55.721332036746	37
73	12025	61.328910728874	55
73	12051	63.53225519823	21
73	12131	70.536382632424	69
73	12163	73.342304441114	27
73	12196	76.045697816389	26
73	12209	77.154146379763	10
73	12241	79.962666479747	27
73	12258	81.270217245591	12
73	12304	86.6	26
73	12359	91.6	49
73	12389	94.001240299004	23
73	12415	96.202331768993	21
73	12430	97.511074128457	12
73	12461	100.02031728546	24
73	12509	104.22298873165	41
73	12549	107.828344769476	35
73	12589	112.2	22
73	12617	114.7	24
73	12648	117.400403660465	26
73	12704	122.210085239141	47
73	12733	124.715087126536	24
73	12769	127.919910550697	31
73	12789	129.527393340393	15
73	12831	133.135960842712	35
73	12888	138.039720223514	48
73	12937	144.9	29
73	12961	147	20
73	13008	151.101975330011	40
73	13076	157.111702770547	59
73	13099	159.020136059918	18
73	13113	160.027248353389	9
73	13218	167.1	31
73	13225	167.4	2
73	13245	168.205189336636	7
73	13383	174.514555550205	62
73	13435	178.317914026648	37
73	13460	180.427743681953	20
73	13496	183.634322517669	31
73	13531	186.544051690419	28
73	13576	192.5	25
73	13607	195.3	27
73	13641	198.103143699751	27
73	13659	199.710459983087	15
73	13668	200.217442412291	4
73	13699	202.924877605886	26
73	13748	207.225340248246	42
73	13792	212.7	27
73	13830	216	32
73	13859	218.507607851158	24
73	13893	221.510544521579	29
73	13912	223.012615121359	14
73	13933	224.71339278419	16
73	13954	226.416353026528	16
73	13980	228.617114909211	21
73	14050	234.823357168837	61
73	14226	241.7	37
73	14297	243.8	20
73	14341	245.006591239352	11
73	14396	246.714081548267	16
73	14459	249.115691344978	23
73	14501	250.91889027788	17
73	14515	251.521147247431	5
73	14551	253.129906656068	15
73	14617	256.036534023518	28
73	14654	259.238682630525	31
73	14671	260.548301567032	12
73	14706	263.654597140855	30
73	14724	265.055953305286	13
73	14751	267.361272776386	22
73	14770	268.869420607493	14
73	14789	270.372968626104	14
73	14833	276.4	24
73	14860	278.8	23
73	14885	280.909286048756	20
73	14918	283.810618244559	28
73	14942	285.820300928738	19
73	14962	287.421654114883	15
73	14988	289.62998681658	21
73	15019	292.136081180368	24
73	15086	300.7	47
73	15155	306.9	61
73	15188	309.801798638799	28
73	15225	312.902817097133	30
73	15265	316.310276871129	33
73	15282	317.819420457907	14
73	15302	319.420009522837	15
73	15348	323.425236222155	39
73	15370	325.228039455318	17
73	15413	328.931902084261	36
73	15444	331.634479894127	26
73	15469	333.738042084506	20
73	15512	337.440859750782	36
73	15540	341	10
73	15586	345.1	40
73	15623	348.20564006665	30
73	15631	348.810111680563	5
73	15684	353.511059524348	46
73	15711	356.9	9
73	15747	360	30
73	15758	360.901723074503	8
73	15787	363.409870842213	24
73	15805	364.812396870355	13
73	15843	368.015111696798	31
73	15857	369.21820208309	11
73	15892	372.125939641518	28
73	15942	379.2	32
73	15953	380	7
73	15964	380.906899753871	8
73	16019	385.816044356992	48
73	16034	386.916852704164	10
73	16045	387.823816597527	8
73	16060	388.933527995981	10
73	16069	389.642900191873	6
73	16092	391.545584452244	18
73	16191	400.254849023747	86
73	16235	404.063899797336	37
73	16385	413.2	52
73	16413	415.7	24
73	16444	418.20857350145	24
73	16480	421.412626223498	31
73	16547	427.318886792826	58
73	16563	428.526249460862	11
73	16629	434.331160103352	57
73	16665	437.532976429345	31
73	16711	442.6	26
73	16730	444.2	15
73	16747	445.704008508895	14
73	16767	447.306046986016	15
73	16805	450.509325814086	31
73	16829	452.515645345325	19
73	16867	455.923775141156	33
73	16931	461.526729907566	55
73	17234	471.7	77
73	17255	472.3	5
73	17358	475.709949265311	33
73	17466	480.618235401909	48
73	17534	483.820208102257	31
73	17566	485.925522271759	20
73	17594	488.126889591881	21
73	17658	496.5	45
73	17679	498.3	17
73	17702	500.200622668333	18
73	17756	505.003215947096	47
73	17877	515.90563484499	108
73	17925	520.8	28
73	17993	526.9	60
73	18030	530.003717572337	30
73	18037	530.51155321946	4
73	18044	531.015092272917	4
73	18075	533.724929164794	26
73	18109	536.526645559185	27
73	18152	540.233166309465	36
73	18159	540.733932309113	4
73	18167	541.339184074184	5
73	18174	541.844891030593	4
73	18182	542.24805808454	3
73	18207	544.352886593809	20
73	18271	552.2	42
73	18278	552.8	5
73	18291	553.908495369716	10
73	18363	560.113453250603	61
73	18378	561.41855069984	12
73	18403	563.524680063489	20
73	18459	568.327956007539	47
73	18490	573.3	13
73	18528	576.6	32
73	18561	579.502076707093	28
73	18585	581.511594302658	19
73	18604	583.020903064223	14
73	18637	585.92477371818	28
73	18673	588.93100039139	29
73	18691	590.337081731798	13
73	18734	596.3	23
73	18782	600.6	42
73	18813	603.303047934558	26
73	18876	608.803706028016	54
73	18886	609.613203752522	7
73	18916	612.013285658731	23
73	18957	615.719991041064	36
73	18970	616.622751401316	8
73	18995	620.7	7
73	19033	624	32
73	19083	628.40504805854	43
73	19105	630.211468599722	17
73	19139	633.213259041317	29
73	19214	639.915400113394	66
73	19246	642.51587618626	25
73	19284	645.923818350804	33
73	19329	649.824334652651	38
73	19372	653.528482700107	36
73	19396	655.530694279361	19
73	19449	660.033919883016	44
73	19530	667.334015682239	72
73	19683	676.7	67
73	19716	679.7	29
73	19738	681.500073385802	17
73	19777	684.803172841232	32
73	19811	687.81157987137	29
73	19833	689.619963353738	17
73	19863	692.023692061734	23
73	19892	694.524065969379	24
73	19958	700.325575242375	57
73	19989	703.030241230674	26
73	20036	707.136496385896	40
73	20103	713.03973961592	58
73	20135	715.849092236615	27
73	20216	722.954224286149	70
73	20255	726.256736209622	32
73	20290	729.363978128278	30
73	20352	736	40
73	20377	738.2	21
73	20402	740.30393725974	20
73	20418	741.706021004137	13
73	20444	743.908907317846	21
73	20483	747.21642704895	32
73	20505	749.020891392657	17
73	20547	752.627241892963	35
73	20571	754.631798845109	19
73	20595	756.637706518467	19
73	20637	760.241034437076	35
73	20700	768.1	41
73	20719	769.9	17
73	20757	773.106318193408	31
73	20793	776.108210276942	29
73	20825	778.917599311263	27
73	20870	782.823929869555	38
73	20890	784.424088632738	15
73	20905	785.727076421972	12
73	20926	787.431297985041	16
73	20949	789.337117100684	18
73	20983	793.7	17
73	21002	795.3	15
73	21047	799.209592435201	38
73	21067	800.810384885861	15
73	21106	804.111956850058	32
73	21145	807.621954711373	34
73	21165	809.223253475925	15
73	21208	812.929322955851	36
73	21228	814.536980792456	15
73	21266	820	20
73	21297	822.8	27
73	21331	825.802827205443	29
73	21356	827.905885654626	20
73	21373	829.213498033963	12
73	21396	831.120399462215	18
73	21431	834.02938020958	28
73	21457	836.232386143318	21
73	21481	838.241698628467	19
73	21506	840.342405503581	20
73	21594	850.4	64
73	21626	853.3	28
73	21660	856.106374737739	27
73	21722	861.711541816305	55
73	21767	865.619416352102	38
73	21799	868.22747871416	25
73	21834	871.331841084021	30
73	21890	876.140081069771	47
73	21942	880.748161964648	45
73	21975	883.65686897477	28
73	22017	888.4	24
73	22036	890	15
73	22071	893.10622372681	30
73	22094	895.010191092227	18
73	22110	896.217664445542	11
73	22147	899.518293714536	32
73	22197	903.920700458903	43
73	22239	907.521766468568	35
73	22275	910.529786377111	29
73	22297	912.338893499504	17
73	22309	913.34230805891	9
73	22390	920.450281565823	70
73	22452	928	40
73	22469	929.6	15
73	22496	931.909084688071	22
73	22527	934.417824705147	24
73	22550	936.323417537304	18
73	22574	938.332676855519	19
73	22618	942.134957059768	37
73	22636	943.743706630593	15
73	22657	945.446897030678	16
73	22682	947.552671581278	20
73	22744	952.954401305855	53
73	22890	961.1	51
73	22931	962.9	17
73	22995	965.803861985593	28
73	23047	968.012822632938	21
73	23128	975.315439897018	72
73	23162	978.1205034304	27
73	23242	985.32369722148	71
73	23309	992.8	48
73	23349	996.3	34
73	23380	999.005156658445	26
73	23467	1006.709307788228	76
73	23514	1010.814218221266	40
73	23561	1014.919961129965	40
73	23650	1020.4	24
73	23689	1022.1	16
73	23769	1025.902884609936	37
73	23889	1031.310587385612	53
73	23935	1033.412676076556	20
73	24013	1036.918386809367	34
73	24062	1039.128099538702	21
73	24092	1040.92870027987	17
73	24139	1045.033054833812	40
73	24161	1046.833634696793	17
73	24182	1048.542327005031	16
73	24246	1056.3	43
73	24258	1057.4	10
73	24298	1060.804398692627	33
73	24327	1063.311005937358	24
73	24360	1066.019020896759	26
73	24387	1068.325690902117	22
73	24425	1071.731225161898	33
73	24457	1074.332931072331	25
73	24495	1077.740552041291	33
73	24562	1084.6	46
73	24596	1087.7	30
73	24635	1091.000221063275	32
73	24658	1092.90921780601	18
73	24689	1095.614128002015	26
73	24721	1098.214207615533	25
73	24752	1100.914766615668	26
73	24807	1107.8	38
73	24831	1109.9	20
73	24840	1110.407425739094	4
73	24875	1113.50754004507	30
73	24897	1115.316698710212	17
73	24904	1115.825767182471	4
73	24914	1116.43205591192	5
73	24939	1118.537837091241	20
73	24948	1119.242835003683	6
73	24995	1123.346069203951	40
73	25037	1126.2	2
73	25067	1127.6	13
73	25125	1130.100715026345	24
73	25151	1131.303115470273	11
73	25179	1132.409760081314	10
73	25264	1136.217320610766	37
73	25315	1138.522125695977	22
73	25340	1139.530685004618	9
73	25362	1140.43740389402	8
73	25388	1141.641473920307	11
73	25430	1143.44605090733	17
73	25558	1151.252346856611	77
73	25629	1158.9	49
73	25692	1164.5	55
73	25735	1168.208743135584	36
73	25752	1169.710487308669	14
73	25783	1172.214333303458	24
73	25824	1175.91574067748	36
73	25868	1179.718065525901	37
73	25889	1182.3	3
73	25896	1182.9	5
73	25907	1183.803184849587	8
73	25964	1188.713134304547	48
73	26010	1192.713621577435	39
73	26050	1196.120495107272	33
73	26153	1207.9	79
73	26164	1208.7	7
73	26174	1209.500109993307	7
73	26183	1210.001520566327	4
73	26222	1213.507735486565	34
73	26242	1215.108375958263	15
73	26260	1216.516992639585	13
73	26283	1218.426532998641	18
73	26300	1219.929297571135	14
73	26311	1220.631811193434	6
73	26341	1223.233747132957	25
73	26397	1228.042024948805	47
73	26534	1236.7	47
73	26553	1237.6	8
73	26617	1241.206505600255	35
73	26662	1245.111349899798	38
73	26685	1247.019624474608	18
73	26696	1247.925725667668	8
73	26746	1252.126359845053	41
73	26829	1262.2	62
73	26858	1264.8	25
73	26874	1266.003269528332	11
73	26887	1267.108256836356	10
73	26907	1268.71073607555	15
73	26950	1272.419159506646	36
73	26966	1273.823160682055	13
73	27001	1276.727267865345	28
73	27027	1281	10
73	27067	1284.5	34
73	27088	1286.202170418568	16
73	27149	1291.708084001238	54
73	27162	1292.615060033883	8
73	27196	1295.618752798988	29
73	27230	1298.422911930357	27
73	27262	1301.224046049435	27
73	27301	1306.1	21
73	27327	1308.4	22
73	27372	1312.305105710451	38
73	27408	1315.507673257871	31
73	27497	1323.416748421308	78
73	27534	1326.521221444857	30
73	27565	1329.22200640014	26
73	27605	1332.628452010397	33
73	27641	1335.838409164988	31
73	27760	1341.8	38
73	27829	1344.8	29
73	27895	1347.807318457486	29
73	27973	1351.316680532267	34
73	28038	1356.520527424646	51
73	28072	1359.527075968602	29
73	28109	1362.631711485021	30
73	28133	1364.635986037993	19
73	28177	1368.437727203677	37
73	28208	1371.147489484106	26
73	28255	1375.252242957933	40
73	28286	1377.954327607706	26
73	28419	1385.7	57
73	28447	1388	22
73	28465	1389.608890225896	15
73	28503	1392.812467374181	31
73	28553	1397.222177788779	43
73	28768	1408.3	83
73	28831	1411.3	29
73	28866	1413.60186445597	22
73	28912	1417.61154193041	39
73	28933	1419.318041995445	16
73	28958	1421.421892562026	20
73	29015	1426.330641505338	48
73	29083	1434.6	46
73	29128	1438.6	39
73	29146	1440.000563418369	13
73	29192	1444.002884058577	39
73	29227	1447.109782844208	30
73	29265	1450.31389288734	31
73	29320	1455.221901405021	48
73	29358	1458.42976584411	31
73	29373	1459.733845011701	12
73	29412	1464.1	21
73	29431	1465.9	17
73	29458	1468.008269471011	20
73	29474	1469.409420480166	13
73	29490	1470.612364882518	11
73	29509	1472.118010782309	14
73	29542	1475.025044968645	28
73	29582	1478.42801593366	33
73	29614	1481.232073960273	27
73	29664	1485.634361224005	43
73	29674	1486.237866368189	5
73	29692	1487.84150630834	15
73	29700	1488.243213145138	3
73	29732	1491.04997654955	27
73	29739	1491.559247223791	4
73	29835	1501.3	73
73	29867	1504	26
73	29884	1505.500971241323	14
73	29910	1507.704428941758	21
73	29933	1509.604632871748	18
73	29965	1512.205403328999	25
73	29971	1512.612229889857	3
73	30013	1516.217336525595	35
73	30090	1523.123318157917	68
73	30191	1527.4	14
73	30244	1529	15
73	30294	1530.609938965511	15
73	30383	1535.014237210775	43
73	30403	1536.616670369015	15
73	30422	1538.119257602384	14
73	30471	1542.423179010711	42
73	30491	1544.023659264661	15
73	30525	1547.029231472636	29
73	30547	1548.832792462966	17
73	30599	1555.4	34
73	30622	1557.4	19
73	30629	1557.903188737335	4
73	30643	1558.910721515097	9
73	30655	1559.916458341934	9
73	30684	1562.225975704307	22
73	30772	1570.030939009783	77
73	30784	1571.039365926121	9
73	30807	1572.948225117662	18
73	30837	1575.554668846541	25
73	30855	1576.955236763375	13
73	30866	1577.856717644616	8
73	30899	1580.55718491327	26
73	30935	1585.9	19
73	30983	1590	40
73	30996	1591.108134105456	10
73	31045	1595.410372032449	42
73	31056	1596.118670483038	6
73	31111	1601.022550308715	48
73	31175	1606.626482716178	55
73	31188	1607.734040612933	10
73	31230	1612.4	24
73	31243	1613.6	11
73	31302	1618.704321107605	50
73	31312	1619.510602522072	7
73	31333	1621.217535228457	16
73	31348	1622.326412125097	10
73	31378	1624.930335302576	25
73	31398	1626.532439294876	15
73	31422	1628.536163093556	19
73	31435	1629.644454417567	10
73	31471	1632.647547074375	29
73	31505	1635.65192606732	29
73	31660	1643.5	55
73	31751	1647.7	41
73	31808	1650.604629057138	28
73	31832	1652.611365975101	19
73	31864	1657.4	14
73	31898	1660.3	28
73	31967	1666.406536792088	60
73	32022	1671.309598731777	48
73	32057	1674.215318063319	28
73	32167	1683.3	53
73	32187	1685	16
73	32208	1686.705930319884	16
73	32243	1689.8155501509	30
73	32305	1695.216931938869	53
73	32474	1704	60
73	32523	1706.3	22
73	32543	1707.206967970037	8
73	32637	1711.509916793265	42
73	32673	1713.013593419875	14
73	32718	1715.019254346663	19
73	32803	1718.828996523312	37
73	32827	1719.834970476893	9
73	32907	1723.54144019532	36
73	32994	1731	50
73	33004	1731.9	8
73	33044	1735.30787290187	33
73	33069	1737.411680180038	20
73	33084	1738.517334328127	10
73	33095	1739.426118796645	8
73	33111	1740.62708681389	11
73	33122	1741.537002293318	8
73	33141	1743.044083881957	14
73	33177	1746.044360353054	29
73	33272	1757.3	73
73	33311	1760.7	33
73	33403	1768.903582751702	81
73	33428	1771.013469540055	20
73	33442	1772.022446741405	9
73	33457	1773.325846546363	12
73	33471	1774.328996004749	9
73	33508	1777.632392109982	32
73	33524	1778.840546987846	11
73	33547	1780.749177183778	18
73	33591	1786.5	25
73	33650	1791.9	53
73	33681	1794.400183532971	24
73	33701	1796.004221731719	15
73	33722	1797.913155653126	18
73	33739	1799.213343538128	12
73	33806	1805.118628167545	58
73	33955	1810.9	29
73	33985	1811.8	8
73	34027	1813.003158645657	11
73	34087	1814.805307805597	17
73	34199	1818.212250903994	33
73	34253	1819.918987621574	16
73	34326	1822.021267137087	20
73	34361	1823.328720288329	12
73	34397	1824.932167426681	15
73	34427	1826.136023981166	11
73	34461	1827.744484030257	15
73	34530	1833.3	33
73	34549	1834.9	15
73	34554	1835.203301894094	2
73	34584	1837.810127035004	25
73	34601	1839.118583362087	12
73	34659	1844.120015590734	49
73	34676	1845.624327015218	14
73	34694	1847.026072424024	13
73	34717	1848.934033300627	18
73	34740	1850.841246691413	18
73	34758	1852.242626449034	13
73	34774	1853.649588691195	13
73	34814	1857.050013161407	33
73	34881	1864.5	45
73	34908	1866.9	23
73	34931	1868.808709338537	18
73	34970	1872.111578782884	32
73	35005	1875.216497030741	30
73	35034	1877.717974038092	24
73	35064	1880.121851953992	23
73	35089	1882.228727526718	20
73	35128	1885.731353564115	34
73	35145	1887.038025087313	12
73	35177	1889.84404264676	27
73	35213	1892.845813311106	29
73	35220	1893.354709002301	4
73	35257	1896.458062251526	30
73	35350	1904.760140990625	82
73	35415	1909.3	13
73	35478	1912.1	27
73	35544	1915.008533109501	28
73	35572	1916.11853191937	10
73	35669	1920.923961807351	47
73	35712	1924.630743168088	36
73	35734	1926.439187696991	17
73	35780	1930.447366995881	39
73	35811	1933.155149442476	26
73	35860	1937.458908379689	42
73	36001	1944.9	49
73	36042	1946.7	17
73	36136	1951.004185732665	42
73	36254	1957.207040144383	61
73	36268	1958.208177441871	9
73	36295	1960.517419124902	22
73	36321	1962.725768502773	21
73	36333	1963.730987603696	9
73	36369	1966.739587544795	29
73	36403	1969.743390182238	29
73	36428	1971.852736447697	20
73	36501	1979.1	51
73	36539	1982.4	32
73	36583	1986.200487323107	37
73	36615	1989.003590946445	27
73	36646	1991.708474282976	26
73	36689	1995.409000082362	36
73	36731	1999.013469037738	35
73	36772	2002.523026391219	34
73	36802	2005.128372166028	25
73	36830	2007.529914182698	23
73	36924	2017	70
73	36959	2020	29
73	36983	2022.001671227503	19
73	37089	2031.60344288991	95
73	37133	2036.4	24
73	37168	2039.6	31
73	37220	2044.002539349694	43
73	37346	2055.406677124919	113
73	37383	2058.511013037501	30
73	37424	2062.015624600422	34
73	37460	2065.219421173472	31
73	37502	2070.2	22
73	37517	2071.6	13
73	37528	2072.308619256382	6
73	37558	2074.916814108629	25
73	37576	2076.319624342034	13
73	37609	2079.229139646338	28
73	37647	2082.431592372331	31
73	37660	2083.532218043376	10
73	37680	2085.13436957007	15
73	37705	2087.24395126166	20
73	37741	2091.8	18
73	37769	2094.1	22
73	37785	2095.50490175741	13
73	37822	2098.606321685388	30
73	37848	2100.807070566701	21
73	37878	2103.413076029071	25
73	37902	2105.420469028135	19
73	37923	2107.12626999947	16
73	37973	2113.2	32
73	38006	2116	27
73	38027	2117.904252154165	18
73	38059	2120.512338615699	25
73	38082	2122.421061372837	18
73	38112	2125.029788259929	25
73	38153	2128.535881355008	34
73	38173	2132.5	5
73	38186	2133.7	11
73	38233	2137.800215559506	40
73	38266	2140.509698193671	26
73	38288	2142.309995949472	17
73	38333	2146.217347759321	38
73	38350	2147.71804592558	14
73	38376	2149.923255588873	21
73	38395	2151.427579214484	14
73	38416	2153.130872709576	16
73	38480	2158.736655630161	55
73	38659	2168.6	66
73	38706	2170.8	21
73	38810	2175.604287078317	47
73	38858	2177.706738406107	20
73	38879	2178.516031983924	7
73	38917	2181.320966403033	27
73	38953	2184.323253787006	29
73	39019	2192.7	47
73	39038	2194.3	15
73	39050	2195.305702119874	9
73	39090	2198.710684564201	33
73	39133	2202.41742157956	36
73	39172	2205.918847092379	34
73	39207	2208.819113445012	28
73	39300	2214.5	25
73	39309	2214.9	3
73	39336	2216.006233712343	10
73	39366	2217.614521472413	15
73	39382	2218.823632734977	11
73	39411	2221.329791197628	24
73	39479	2227.338646150005	59
73	39496	2228.647588049869	12
73	39545	2234.9	29
73	39576	2237.7	27
73	39605	2240.009864911828	22
73	39617	2241.014895011652	9
73	39641	2243.020959992026	19
73	39664	2244.921840977258	18
73	39740	2251.726827199681	67
73	39769	2254.029192935806	22
73	39806	2257.330064167033	32
73	39851	2261.231633388103	38
73	39873	2263.039051128854	17
73	39912	2266.342655578704	32
73	39946	2269.345571085267	29
73	39994	2274.9	29
73	39999	2275.3	3
73	40023	2277.306202120352	19
73	40058	2280.206429759982	28
73	40096	2283.61087388421	33
73	40129	2286.314236576832	26
73	40150	2288.020108460846	16
73	40170	2292.5	5
73	40242	2299	64
73	40275	2301.906603523534	28
73	40351	2308.509824011346	65
73	40389	2311.91564821828	33
73	40403	2312.924669944432	9
73	40419	2314.125061494475	11
73	40428	2314.828983196611	6
73	40441	2315.93562995535	10
73	40493	2320.345054414094	43
73	40527	2323.346949049926	29
73	40554	2325.655885559299	22
73	40682	2330.2	22
73	40769	2333	27
73	40826	2334.707406415843	16
73	40876	2338.010430522921	32
73	40907	2340.711057468949	26
73	40965	2345.914681012838	51
73	40999	2348.719580158836	27
73	41027	2351.129060071977	23
73	41055	2353.531229947421	23
73	41087	2356.13171787138	25
73	41181	2364.533399674085	83
73	41234	2371.3	33
73	41282	2375.6	42
73	41317	2378.502754105553	28
73	41336	2380.005519540214	14
73	41362	2382.211349513232	21
73	41391	2384.714374553185	24
73	41433	2388.323443542463	35
73	41448	2389.632549084157	12
73	41485	2392.732726447938	30
73	41511	2394.939462899858	21
73	41530	2396.442977707692	14
73	41541	2397.347874993228	8
73	41576	2400.256795926115	28
73	41604	2402.665311855815	23
73	41648	2408.5	25
73	41682	2411.6	30
73	41737	2416.307865721588	46
73	41741	2416.510397225972	1
73	41757	2417.915730879341	13
73	41772	2419.022218768239	10
73	41790	2420.429932563801	13
73	41823	2423.339265720006	28
73	41904	2430.43958962758	70
73	41919	2431.743684154212	12
73	41941	2433.545406309925	17
73	41963	2435.350009946965	17
73	41985	2437.15561244901	17
73	42007	2438.965023511515	17
73	42066	2444.074181360445	50
73	42119	2451.3	33
73	42158	2454.7	33
73	42165	2455.20362223511	4
73	42212	2459.31066179586	40
73	42246	2462.111832179651	27
73	42278	2464.918046982211	27
73	42333	2469.825469633349	48
73	42373	2473.5	15
73	42396	2475.5	19
73	42429	2478.209629798072	26
73	42475	2482.211763893269	39
73	42499	2484.221718914367	19
73	42525	2486.42844076555	21
73	42546	2488.135233965958	16
73	42566	2489.940627979104	17
73	42587	2491.643729923233	16
73	42610	2493.547648064746	18
73	42662	2499.3	33
73	42704	2503	36
73	42728	2505.004715223775	19
73	42776	2509.207777597004	41
73	42802	2511.416511882479	21
73	42842	2514.823267795022	33
73	42849	2515.327687385773	4
73	42886	2520	20
73	42918	2522.9	28
73	42945	2525.201629754614	22
73	42980	2528.104353908341	28
73	43022	2531.912378514652	37
73	43052	2534.313214333768	23
73	43081	2536.821220105775	24
73	43127	2540.822869894295	39
73	43166	2544.124064839179	32
73	43194	2546.526406370039	23
73	43222	2548.93215116788	23
73	43247	2551.040818167252	20
73	43300	2555.742344747476	46
73	43362	2562	40
73	43377	2563.4	13
73	43435	2568.406218639668	49
73	43467	2571.210205399896	27
73	43484	2572.515788587437	12
73	43522	2575.92575777218	33
73	43545	2577.829644256064	18
73	43628	2586.2	62
73	43659	2589	27
73	43685	2591.205270335683	21
73	43714	2593.7137291556	24
73	43748	2596.521180537462	27
73	43762	2597.724123617941	11
73	43785	2599.629432298871	18
73	43805	2601.232805051737	15
73	43855	2607	30
73	43876	2608.8	17
73	43903	2611.100759498276	22
73	43960	2616.004638105981	48
73	43977	2617.512031304087	14
73	44046	2623.612146628248	60
73	44057	2624.320880169114	6
73	44101	2630.7	27
73	44133	2633.6	28
73	44154	2635.306251896966	16
73	44221	2641.207880506493	58
73	44260	2644.511142625886	32
73	44269	2645.220160178333	6
73	44331	2650.622479101545	53
73	44478	2659	50
73	44521	2660.8	17
73	44587	2665.804410499087	49
73	44660	2672.106308044795	62
73	44686	2674.310031830737	21
73	44714	2676.714261300522	23
73	44759	2680.622824540783	38
73	44778	2682.123533046301	14
73	44806	2684.528670034552	23
73	44836	2687.138008873627	25
73	44911	2695.3	53
73	44939	2697.8	24
73	44963	2699.806318178675	19
73	44996	2702.50709768393	26
73	45031	2705.610649018172	30
73	45069	2708.811891882529	31
73	45085	2710.021554185089	11
73	45122	2713.330056906083	32
73	45196	2719.930950313491	65
73	45224	2722.138133734691	21
73	45264	2728	20
73	45303	2731.6	35
73	45335	2734.20192803417	25
73	45351	2735.609543043578	13
73	45390	2738.911525182717	32
73	45406	2740.112140183071	11
73	45421	2741.412591972506	12
73	45437	2742.618723191436	11
73	45459	2744.420127742566	17
73	45528	2750.524180665615	60
73	45551	2752.430169375862	18
73	45579	2754.839603448516	23
73	45605	2757.046748386636	21
73	45641	2761.8	18
73	45658	2763.2	13
73	45682	2765.20530548084	19
73	45719	2768.313676616846	30
73	45789	2774.514361962485	61
73	45825	2777.722957433441	31
73	45855	2780.12684262721	23
73	45885	2782.734002930374	25
73	45916	2785.4369934213	26
73	45945	2787.940009070844	24
73	45967	2789.747970461111	17
73	46118	2797.8	58
73	46137	2799.4	15
73	46148	2800.107022056926	6
73	46160	2801.111293569411	9
73	46189	2803.621112961742	24
73	46206	2804.922030663924	12
73	46237	2807.63007098042	26
73	46247	2808.234681884989	5
73	46283	2811.436334678891	31
73	46315	2814.036453638797	25
73	46333	2815.640969333626	15
73	46350	2816.945969835171	12
73	46361	2817.848968280463	8
73	46515	2826.6	66
73	46523	2827.3	6
73	46535	2828.106107793657	7
73	46549	2829.315221215574	11
73	46560	2830.01683622982	6
73	46580	2831.824888295443	17
73	46601	2833.526132389414	16
73	46611	2834.127804449631	5
73	46634	2836.029927379991	18
73	46652	2837.632525920603	15
73	46666	2838.632995762695	9
73	46686	2840.238007456849	15
73	46781	2851.1	71
73	46798	2852.5	13
73	46862	2858.100276790743	55
73	46872	2858.901681849439	7
73	46883	2859.807240850135	8
73	46897	2860.815900069227	9
73	46931	2863.820530144452	29
73	46965	2866.628412026572	27
73	46995	2869.235806125379	25
73	47065	2877	50
73	47079	2878.1	10
73	47107	2880.501643964594	23
73	47131	2882.507848012397	19
73	47182	2887.012413592516	44
73	47230	2891.221983467082	41
73	47265	2894.123663885791	28
73	47285	2895.925444893	17
73	47301	2897.128776159338	11
73	47321	2898.730321180108	15
73	47395	2907.3	53
73	47410	2908.5	11
73	47479	2914.604438195149	60
73	47492	2915.707608250798	10
73	47515	2917.61754735293	18
73	47547	2920.223490661067	25
73	47601	2925.028433085001	47
73	47611	2925.830168319322	7
73	47629	2927.236657119603	13
73	47711	2934.442337744275	71
73	47766	2939.343951237319	48
73	47791	2941.449015244851	20
73	47848	2946.353198632244	48
73	47884	2949.561974179237	31
73	47993	2955.4	34
73	48022	2956.7	12
73	48118	2961.001728773836	42
73	48134	2961.704021175235	6
73	48168	2963.207278922131	14
73	48193	2964.214306490992	9
73	48215	2965.218636457044	9
73	48249	2966.724116298143	14
73	48342	2972.428481106002	56
73	48471	2980.2	42
73	48571	2985.3	50
73	48592	2987.006826041825	16
73	48615	2988.911720190986	18
73	48640	2991.012132686734	20
73	48684	2996.4	24
73	48716	2999.3	28
73	48751	3002.209243818765	28
73	48770	3003.918720724141	16
73	48813	3007.625895146344	36
73	48840	3009.933066305402	22
73	48896	3014.734726069073	47
73	48930	3017.73939864392	29
73	48969	3021.045682528815	32
73	49022	3025.750692395774	46
73	49071	3030.9	29
73	49107	3034	30
73	49143	3037.202433376424	31
73	49178	3040.110182591818	28
73	49217	3043.619051991702	34
73	49248	3046.122098082181	24
73	49280	3048.931987271695	27
73	49329	3053.237462691086	42
73	49358	3055.740220193097	24
73	49395	3058.846216058812	30
73	49424	3061.347333884995	24
73	49443	3062.855464756799	14
73	49481	3066.056409322214	31
73	49540	3073.9	39
73	49563	3075.9	19
73	49614	3080.208499143135	42
73	49662	3084.411412036048	41
73	49682	3086.016616250182	15
73	49707	3088.123416271422	20
73	49719	3089.124316230314	9
73	49737	3090.530146946364	13
73	49759	3092.339298271499	17
73	49836	3101.5	55
73	49850	3102.6	10
73	49881	3105.303844041984	26
73	49907	3107.504272144826	21
73	49922	3108.614160113956	10
73	49953	3111.319711446989	26
73	50001	3115.519973982324	41
73	50032	3118.020445260119	24
73	50045	3119.12312147208	10
73	50058	3120.025410474519	8
73	50114	3124.93509651253	48
73	50145	3127.639229198752	26
73	50194	3133	30
73	50221	3135.4	23
73	50239	3136.803969011795	13
73	50260	3138.511210496946	16
73	50335	3145.211644424166	66
73	50349	3146.216208576311	9
73	50395	3150.217495749851	39
73	50426	3155.6	16
73	50515	3163.6	79
73	50541	3165.80235310205	21
73	50581	3169.208038649351	33
73	50599	3170.609341676287	13
73	50614	3171.914357168574	12
73	50625	3172.619526077059	6
73	50822	3183.4	74
73	50945	3189	55
73	50993	3191.105193261613	20
73	51053	3193.811159018857	26
73	51135	3199.515537121453	56
73	51166	3202.024403976366	24
73	51195	3204.527981798004	24
73	51220	3206.637194161766	20
73	51257	3209.938192553184	32
73	51284	3212.047489275025	20
73	51304	3213.849677907021	17
73	51322	3215.258957106051	13
73	51469	3223.1	51
73	51493	3224.5	13
73	51508	3225.808422819615	12
73	51526	3227.20903148712	13
73	51544	3228.612015360366	13
73	51551	3229.117513183989	4
73	51620	3235.218352016634	60
73	51644	3237.22018085848	19
73	51688	3241.023901340036	37
73	51711	3242.931964868999	18
73	51763	3249.2	32
73	51789	3251.5	22
73	51815	3253.708776599408	21
73	51840	3255.815137450128	20
73	51872	3258.424810213869	25
73	51903	3261.132785777851	26
73	51931	3263.537009580811	23
73	51955	3265.539111271531	19
73	52038	3270.1	21
73	52105	3273.3	31
73	52115	3273.703069614144	3
73	52199	3277.312582574835	35
73	52248	3281.012915163546	36
73	52278	3283.618101760727	25
73	52322	3287.419907674329	37
73	52365	3291.123839981633	36
73	52386	3292.829083175854	16
73	52465	3301.7	57
73	52520	3306.5	47
73	52544	3308.509249614721	19
73	52569	3310.611048632023	20
73	52617	3314.811167929117	41
73	52638	3316.512734371556	16
73	52660	3318.322040273681	17
73	52703	3324.6	26
73	52726	3326.6	19
73	52768	3330.206993532781	35
73	52785	3331.715338641546	14
73	52803	3333.125153051394	13
73	52829	3335.326978881666	21
73	52944	3345.636352686865	102
73	52995	3351.1	31
73	53002	3351.7	5
73	53045	3355.402638662012	36
73	53059	3356.408537377667	9
73	53065	3356.815444733498	3
73	53105	3360.218470195415	33
73	53132	3362.526093595132	22
73	53142	3363.333939149479	7
73	53178	3366.335680434505	29
73	53243	3374.3	43
73	53256	3375.5	11
73	53295	3378.809311774771	32
73	53327	3381.617891649738	27
73	53343	3382.821844440097	11
73	53377	3385.825860923944	29
73	53443	3391.627629654131	57
73	53461	3393.027648504162	13
73	53484	3394.93191565731	18
73	53506	3396.737285605663	17
73	53571	3402.441968891854	56