version 2
run Join-27-20130429-12:49:56-17679
attr configname Join
attr datetime 20130429-12:49:56
attr experiment "\"Join\""
attr inifile omnetpp.ini
attr iterationvars $0=128
attr iterationvars2 "$0=128, $repetition=7"
attr measurement $0=128
attr network Network
attr processid 17679
attr repetition 7
attr replication #7
attr resultdir results
attr runnumber 27
attr seedset 27

vector 27  Network.dyn_peer[0]  lookupHopsSig:vector  ETV
27	559	20.212092394308	3
27	589	25.2	12
27	594	25.6	3
27	603	26.100693612929	4
27	610	26.608147436616	4
27	616	27.012093325348	3
27	639	30.5	5
27	648	31.3	7
27	659	32.006261057362	6
27	667	32.610425429932	5
27	676	33.314298301284	6
27	687	34.024143883893	6
27	700	35.128235024159	10
27	723	38.5	5
27	729	39	4
27	739	39.803705101907	7
27	747	40.204468320642	3
27	759	41.212062131144	9
27	772	42.113420495093	8
27	776	42.316333968879	1
27	788	43.317024560142	9
27	794	43.725984539254	3
27	808	44.735668585122	9
27	820	45.736151842524	9
27	830	46.34453264575	5
27	858	51	10
27	868	51.9	8
27	874	52.101791305029	1
27	878	52.309966688143	1
27	882	52.5107998838	1
27	890	53.11793937773	5
27	896	53.522020808502	3
27	906	54.128506810273	5
27	927	58.3	3
27	935	59	6
27	946	59.909065768399	8
27	956	60.511970903167	5
27	967	61.421114296798	8
27	980	62.330699699939	8
27	1016	67.2	12
27	1027	68	7
27	1038	68.900229875426	8
27	1044	69.309164671135	3
27	1051	69.816690364594	4
27	1059	70.219628708013	3
27	1063	70.424965596911	1
27	1093	75.2	12
27	1098	75.6	3
27	1103	75.909342610104	2
27	1116	76.809352011358	8
27	1127	77.716505111771	8
27	1137	78.326424570696	5
27	1142	78.634572611625	2
27	1163	82.3	3
27	1171	83	6
27	1180	83.700772258387	6
27	1188	84.108717148067	3
27	1199	85.015668312777	8
27	1208	85.721228567015	6
27	1216	86.129795411788	3
27	1228	87.138419426258	9
27	1264	90.8	8
27	1269	91.2	3
27	1281	92.000402960507	7
27	1288	92.501203096515	4
27	1294	92.90992209867	3
27	1305	93.816099815113	8
27	1314	94.321060559384	4
27	1321	94.823134957624	4
27	1346	98.7	7
27	1352	99.2	4
27	1359	99.707518285047	4
27	1363	99.913306697904	1
27	1372	100.417470229306	4
27	1377	100.727287366702	2
27	1383	101.130400617494	3
27	1389	101.533129390965	3
27	1398	102.037382774411	4
27	1405	102.542894344222	4
27	1425	104.15200337628	15
27	1448	108.5	5
27	1456	109.2	6
27	1465	109.903239971236	6
27	1474	110.407339302184	4
27	1484	111.210763045278	7
27	1498	112.213098112285	9
27	1503	112.51599230367	2
27	1510	113.021452994388	4
27	1531	116.3	3
27	1535	116.6	2
27	1541	117.005075134991	3
27	1550	117.712323207275	6
27	1567	119.017050432292	12
27	1576	119.718115196797	6
27	1587	120.423265475682	6
27	1597	121.225965957941	7
27	1602	121.532734915529	2
27	1624	124.4	4
27	1631	125	5
27	1641	125.803238669871	7
27	1654	126.707485538301	8
27	1662	127.315737852821	5
27	1670	127.925407402886	5
27	1678	128.325984611486	3
27	1684	128.731881260839	3
27	1694	129.532003999899	7
27	1719	132.7	7
27	1722	132.9	1
27	1732	133.70580556255	7
27	1741	134.213602986675	4
27	1751	135.017193557244	7
27	1759	135.623640845591	5
27	1773	136.629817228033	9
27	1782	137.339088776085	6
27	1804	140.4	4
27	1812	141.1	6
27	1819	141.601883544449	4
27	1829	142.207269685209	5
27	1834	142.513275345609	2
27	1844	143.317869481766	7
27	1850	143.717895698456	3
27	1860	144.322121231571	5
27	1907	148.4	4
27	1914	148.902214947186	4
27	1920	149.308685887736	3
27	1934	150.310871477008	9
27	1959	154.7	7
27	1963	155	2
27	1971	155.609097813214	5
27	1975	155.81194290993	1
27	1985	156.418652032576	5
27	1991	156.828361747073	3
27	1996	157.138330593245	2
27	2018	160.4	4
27	2023	160.8	3
27	2030	161.309463650039	4
27	2036	161.709472962168	3
27	2047	162.413077918176	6
27	2053	162.817064229267	3
27	2063	163.62613667321	7
27	2084	166.3	3
27	2092	167	6
27	2103	167.908041028245	8
27	2114	168.616800526536	6
27	2125	169.525598139347	8
27	2130	169.830465234742	2
27	2137	170.133846035311	2
27	2166	175.4	14
27	2171	175.8	3
27	2179	176.202904531324	3
27	2186	176.707945832348	4
27	2194	177.312770998476	5
27	2200	177.721707911203	3
27	2207	178.028934086065	2
27	2213	178.437497258425	3
27	2218	178.745566393808	2
27	2225	179.246501840511	4
27	2230	179.549652303415	2
27	2240	180.157432621256	5
27	2249	180.858991130834	6
27	2273	184.6	6
27	2280	185.2	5
27	2292	186.001086097226	7
27	2302	186.808434449538	7
27	2312	187.60984613831	7
27	2320	188.012012538077	3
27	2327	188.519041259149	4
27	2335	189.11905106381	5
27	2348	190.019833108656	8
27	2353	190.324001823038	2
27	2363	191.129078906479	7
27	2383	194.3	3
27	2391	195	6
27	2400	195.709946674439	6
27	2411	196.412602397545	6
27	2421	197.218295956434	7
27	2427	197.619973137412	3
27	2435	198.021669386516	3
27	2445	198.829120898821	7
27	2455	199.63064575614	7
27	2476	202.3	3
27	2481	202.7	3
27	2492	203.602658307468	8
27	2501	204.109399736842	4
27	2509	204.718334383565	5
27	2530	208.3	3
27	2539	209.1	7
27	2546	209.609787228959	4
27	2557	210.311872099376	6
27	2581	214.6	6
27	2585	214.9	2
27	2597	215.901129581921	9
27	2612	217.007209001171	10
27	2617	217.316799960715	2
27	2639	220.4	4
27	2644	220.706700344942	2
27	2648	220.906761561273	1
27	2653	221.210463057055	2
27	2658	221.419350009711	1
27	2673	222.5212900437	10
27	2680	223.0226848248	4
27	2690	223.827293976536	7
27	2699	224.33002944767	4
27	2754	228.4	4
27	2766	229.1	6
27	2779	230.008495397814	8
27	2783	230.213062065496	1
27	2789	230.62135437368	3
27	2810	234.3	3
27	2818	235	6
27	2825	235.50573757637	4
27	2838	236.414563509765	8
27	2849	237.315177400376	8
27	2862	238.221667092853	8
27	2866	238.422892812183	1
27	2877	239.331659585258	8
27	2898	242.3	3
27	2904	242.8	4
27	2911	243.307966770003	4
27	2917	243.712263039398	3
27	2928	244.422217959562	6
27	2934	244.823783806022	3
27	2942	245.427317897476	5
27	2953	246.128152631606	6
27	3005	250.4	4
27	3013	251.1	6
27	3023	251.906487583913	7
27	3032	252.413076935763	4
27	3038	252.814253353437	3
27	3044	253.221506576163	3
27	3049	253.525631112595	2
27	3077	256.3	3
27	3087	257.2	8
27	3096	257.903944314317	6
27	3104	258.308263660235	3
27	3109	258.614700848794	2
27	3131	262.4	4
27	3141	263.3	8
27	3154	264.207064633409	8
27	3164	265.013311615893	7
27	3172	265.615130996465	5
27	3177	265.916338762585	2
27	3188	266.621147703402	6
27	3219	271.3	13
27	3232	272.3	9
27	3239	272.805376706977	4
27	3245	273.207191889697	3
27	3252	273.708663087169	4
27	3259	274.017315843993	2
27	3270	274.92361233253	8
27	3293	278.5	5
27	3301	279.2	6
27	3307	279.603631907417	3
27	3324	280.910302041505	12
27	3331	281.417369065607	4
27	3338	281.918461197734	4
27	3347	282.422946921731	4
27	3356	283.124965571018	6
27	3379	286.5	5
27	3393	287.8	12
27	3408	288.903638844124	10
27	3417	289.6084942116	6
27	3428	290.315371919585	6
27	3451	294.5	5
27	3455	294.8	2
27	3465	295.604338664715	7
27	3474	296.111817074797	4
27	3483	296.816913389749	6
27	3488	297.118344744508	2
27	3498	297.921564135394	7
27	3507	298.422219978902	4
27	3516	299.127989749748	6
27	3542	302.8	8
27	3550	303.5	6
27	3561	304.20757073288	6
27	3570	304.912586732699	6
27	3579	305.617044675277	6
27	3588	306.120188284201	4
27	3593	306.428403304006	2
27	3616	310.5	5
27	3623	311.1	5
27	3631	311.704826372172	5
27	3642	312.411357629072	6
27	3650	313.015321445715	5
27	3660	313.81569603639	7
27	3671	314.52515258882	6
27	3676	314.830472637827	2
27	3697	318.3	3
27	3701	318.6	2
27	3707	319.006075087804	3
27	3714	319.513582442726	4
27	3754	322.2	2
27	3759	322.6	3
27	3773	323.80392035179	11
27	3782	324.308490405042	4
27	3789	324.810399995447	4
27	3796	325.222834186547	3
27	3802	325.629347449133	3
27	3828	328.8	8
27	3837	329.6	7
27	3849	330.30716364816	6
27	3854	330.616332349806	2
27	3863	331.325063080646	6
27	3868	331.63058679562	2
27	3886	334	0
27	3891	334.4	3
27	3898	334.90812194281	4
27	3904	335.313870597867	3
27	3910	335.716979643179	3
27	3922	336.518423659345	7
27	3928	336.924419857465	3
27	3934	337.326696101647	3
27	3950	340	0
27	3954	340.3	2
27	3958	340.50588973859	1
27	3963	340.813676419408	2
27	3969	341.219950322966	3
27	3976	341.722520631911	4
27	3987	342.424382902777	6
27	3994	342.929662116388	4
27	3998	343.132245306609	1
27	4004	343.540594973558	3
27	4023	346.1	1
27	4030	346.7	5
27	4036	347.105393865411	3
27	4042	347.506607038734	3
27	4053	348.215358355177	6
27	4060	348.716060711302	4
27	4080	352.2	2
27	4086	352.7	4
27	4094	353.303579009063	5
27	4102	353.908312708569	5
27	4111	354.414947771063	4
27	4119	355.020621690844	5
27	4128	355.728601543058	6
27	4147	358.4	4
27	4152	358.8	3
27	4163	359.703434622816	8
27	4179	360.904894149582	11
27	4202	364.5	5
27	4208	365	4
27	4214	365.402811211252	3
27	4229	366.507414139355	10
27	4239	367.309822661808	7
27	4252	368.217847327621	8
27	4277	372.7	7
27	4285	373.4	6
27	4296	374.10291779136	6
27	4305	374.806794873445	6
27	4312	375.314638334502	4
27	4326	376.315527890374	9
27	4339	377.420878346104	10
27	4351	378.228411693256	7
27	4363	379.238288606449	9
27	4370	379.74356872789	4
27	4377	380.048012287562	2
27	4400	384.5	5
27	4407	385.1	5
27	4416	385.802318384409	6
27	4426	386.40487676693	5
27	4434	387.007907113582	5
27	4440	387.411731970077	3
27	4446	387.811736302743	3
27	4467	390.3	3
27	4477	391.2	8
27	4484	391.709919843042	4
27	4488	391.913480357461	1
27	4497	392.318394656663	3
27	4518	396.3	3
27	4523	396.7	3
27	4531	397.216213791847	4
27	4535	397.420544845423	1
27	4549	398.423858950723	9
27	4553	398.632560408884	1
27	4559	399.041262893053	3
27	4563	399.247673639937	1
27	4568	399.548491039036	2
27	4578	400.152444604707	5
27	4604	404.8	8
27	4611	405.4	5
27	4621	406.000715861271	5
27	4632	406.909216846636	8
27	4642	407.710804073881	7
27	4646	407.917485079595	1
27	4658	408.725851148794	7
27	4664	409.134992854307	3
27	4686	412.4	4
27	4690	412.7	2
27	4699	413.400242793497	6
27	4710	414.101277042594	6
27	4715	414.410961648273	2
27	4724	415.115710867455	6
27	4733	415.817390977484	6
27	4744	416.526781991799	6
27	4748	416.730400665928	1
27	4754	417.135243124004	3
27	4778	420.6	6
27	4786	421.3	6
27	4790	421.50880180634	1
27	4799	422.013257337507	4
27	4823	426.6	6
27	4831	427.3	6
27	4835	427.509727728345	1
27	4844	428.015694783345	4
27	4848	428.215745064731	1
27	4875	432.9	9
27	4881	433.4	4
27	4892	434.101820291187	6
27	4900	434.704343376601	5
27	4909	435.404549055093	6
27	4919	436.005851471853	5
27	4950	441.3	13
27	4960	442	6
27	4969	442.700512491925	6
27	4976	443.204304972693	4
27	4980	443.412638690831	1
27	4991	444.118461836798	6
27	4996	444.426193410065	2
27	5017	448.6	6
27	5021	448.9	2
27	5026	449.202821996072	2
27	5041	450.310385010675	10
27	5047	450.712650154113	3
27	5057	451.519418186905	7
27	5061	451.725311281197	1
27	5083	454.4	4
27	5088	454.8	3
27	5096	455.40250354785	5
27	5107	456.104332711556	6
27	5118	457.010374673843	8
27	5127	457.717122275154	6
27	5135	458.121834713457	3
27	5162	462.9	9
27	5167	463.3	3
27	5178	464.0051186999	6
27	5182	464.206961014654	1
27	5190	464.813895213724	5
27	5199	465.523429536352	6
27	5211	466.32607569766	7
27	5220	467.030997147732	6
27	5229	467.738457036667	6
27	5252	470.5	5
27	5261	471.3	7
27	5273	472.106874492284	7
27	5282	472.81263172038	6
27	5289	473.317051174767	4
27	5300	474.019298660476	6
27	5307	474.526944538108	4
27	5330	478.8	8
27	5341	479.8	9
27	5355	480.804310481641	9
27	5364	481.507180045328	6
27	5377	482.413651636293	8
27	5382	482.714347352526	2
27	5406	486.6	6
27	5412	487.1	4
27	5416	487.308297925367	1
27	5422	487.711426621618	3
27	5430	488.118334613065	3
27	5436	488.52665264876	3
27	5444	489.129049080385	5
27	5452	489.733811962826	5
27	5459	490.039146800868	2
27	5470	490.944270199742	8
27	5478	491.548205350816	5
27	5490	492.355709775855	7
27	5514	496.8	8
27	5521	497.4	5
27	5532	498.109340759543	6
27	5540	498.716380505444	5
27	5548	499.325850546081	5
27	5562	500.331691497145	9
27	5575	501.439118330094	10
27	5585	502.047576154369	5
27	5606	506.5	5
27	5609	506.7	1
27	5620	507.601404859712	8
27	5629	508.107894602454	4
27	5636	508.616346073864	4
27	5642	509.025806042373	3
27	5648	509.428445900657	3
27	5658	510.032776327106	5
27	5678	514.4	4
27	5683	514.8	3
27	5689	515.202077796868	3
27	5698	515.907869645013	6
27	5707	516.414272394457	4
27	5720	517.522243362741	10
27	5730	518.130454979118	5
27	5738	518.73973843609	5
27	5758	522.2	2
27	5763	522.6	3
27	5769	523.004146843566	3
27	5777	523.614114803131	5
27	5794	524.918070412708	12
27	5820	528.8	8
27	5832	529.9	10
27	5839	530.205553695776	2
27	5843	530.409167895901	1
27	5848	530.709394060596	2
27	5854	531.113709399499	3
27	5875	534.3	3
27	5885	535.2	8
27	5892	535.704232005854	4
27	5896	535.904880032976	1
27	5908	536.712325247122	7
27	5919	537.615454949027	8
27	5930	538.319157286438	6
27	5935	538.619821462773	2
27	5944	539.322355384547	6
27	5949	539.62845039603	2
27	5963	540.637299497164	9
27	5986	544.6	6
27	5990	544.9	2
27	5998	545.50841351293	5
27	6002	545.717518971464	1
27	6010	546.126295457011	3
27	6017	546.632346074917	4
27	6025	547.241197422347	5
27	6032	547.655139167487	3
27	6061	551.1	11
27	6070	551.9	7
27	6077	552.207551635797	2
27	6087	553.015938554319	7
27	6096	553.716618685767	6
27	6116	556.2	2
27	6124	556.9	6
27	6136	557.904367575501	9
27	6144	558.314020598886	3
27	6151	558.814473739547	4
27	6157	559.222638892653	3
27	6188	563.3	13
27	6194	563.8	4
27	6204	564.404019526171	5
27	6212	565.012840641061	5
27	6220	565.618109722683	5
27	6224	565.820855030676	1
27	6231	566.12872124019	2
27	6243	567.134388640396	9
27	6248	567.443595131278	2
27	6275	570.9	9
27	6282	571.5	5
27	6291	572.008153776393	4
27	6298	572.517444757634	4
27	6302	572.720485899847	1
27	6308	573.125687150964	3
27	6317	573.825917741867	6
27	6326	574.335796356144	4
27	6346	578.2	2
27	6354	578.9	6
27	6358	579.108419800074	1
27	6366	579.711607066939	5
27	6378	580.515219174005	7
27	6386	581.116477517789	5
27	6395	581.820717975307	6
27	6407	582.629901051135	7
27	6411	582.831616266528	1
27	6431	586.2	2
27	6436	586.6	3
27	6442	587.003926166947	3
27	6451	587.704343949597	6
27	6465	588.707727552425	9
27	6472	589.210063812351	4
27	6485	590.112356057393	8
27	6494	590.81609239917	6
27	6501	591.323454747844	4
27	6509	591.928876839586	5
27	6520	592.633640189865	6
27	6532	593.640717053846	9
27	6546	594.641975161486	9
27	6558	595.649762824051	9
27	6588	599.2	12
27	6596	599.9	6
27	6606	600.507422698005	5
27	6613	601.011662324133	4
27	6621	601.613093757877	5
27	6625	601.814535114854	1
27	6633	602.222303456333	3
27	6661	607	10
27	6669	607.7	6
27	6680	608.403085699465	6
27	6689	609.10676160894	6
27	6696	609.616382781773	4
27	6708	610.417245645993	7
27	6717	611.126852139459	6
27	6733	612.330540659093	11
27	6761	617.2	12
27	6766	617.6	3
27	6775	618.109849223734	4
27	6783	618.710023282214	5
27	6795	619.711859262887	9
27	6808	620.620975824143	8
27	6839	625.3	13
27	6843	625.6	2
27	6853	626.208480739311	5
27	6858	626.515374153555	2
27	6863	626.816141537586	2
27	6885	630.4	4
27	6888	630.6	1
27	6893	630.905580326686	2
27	6905	631.913190255846	9
27	6914	632.419692012799	4
27	6921	632.923612274938	4
27	6930	633.631906931068	6
27	6938	634.03515915493	3
27	6958	638.2	2
27	6965	638.8	5
27	6973	639.404962452328	5
27	6986	640.306464574617	8
27	6991	640.607195058251	2
27	6999	641.214474362542	5
27	7006	641.718145730185	4
27	7017	642.425742504004	6
27	7024	642.931889369842	4
27	7029	643.236702867581	2
27	7035	643.644905729996	3
27	7045	644.253169930643	5
27	7053	644.858345337722	5
27	7060	645.3607738228	4
27	7092	649.4	14
27	7101	650	5
27	7108	650.50521210131	4
27	7114	650.906957084641	3
27	7124	651.709939943586	7
27	7136	652.512847825986	7
27	7142	652.916194870223	3
27	7150	653.517467775619	5
27	7163	654.417788129564	8
27	7170	654.922805785607	4
27	7177	655.424312033036	4
27	7184	655.927328407454	4
27	7196	656.734418176307	7
27	7218	660.4	4
27	7222	660.7	2
27	7230	661.306840196077	5
27	7236	661.707947793823	3
27	7245	662.209822631188	4
27	7252	662.71277701712	4
27	7261	663.422481011883	6
27	7267	663.832231113945	3
27	7275	664.234630652013	3
27	7283	664.834682133308	5
27	7309	668.8	8
27	7317	669.5	6
27	7321	669.704335553564	1
27	7330	670.213806650302	4
27	7341	671.114693491168	8
27	7350	671.822958315527	6
27	7361	672.532867382871	6
27	7368	673.037431124145	4
27	7374	673.447164203141	3
27	7402	677	10
27	7419	678.4	13
27	7425	678.805551057402	3
27	7443	680.210369066209	13
27	7450	680.717008320907	4
27	7459	681.425451199914	6
27	7465	681.829619601006	3
27	7477	682.629900332377	7
27	7502	686.7	7
27	7508	687.2	4
27	7515	687.700674858128	4
27	7519	687.906003463882	1
27	7526	688.207053917275	2
27	7532	688.609050624401	3
27	7538	689.017599962088	3
27	7548	689.823186985202	7
27	7562	690.824500686203	9
27	7572	691.633630062279	7
27	7592	694.2	2
27	7595	694.4	1
27	7611	695.80401740936	13
27	7623	696.609593612101	7
27	7648	700.7	7
27	7656	701.4	6
27	7662	701.801206081097	3
27	7670	702.206162038251	3
27	7675	702.515722731837	2
27	7702	706.9	9
27	7707	707.3	3
27	7712	707.60313317252	2
27	7721	708.113023376778	4
27	7726	708.420896234727	2
27	7734	709.022489882475	5
27	7742	709.625767855015	5
27	7751	710.129368861975	4
27	7762	711.038392941417	8
27	7773	711.948379295666	8
27	7784	712.653871287621	6
27	7803	716.1	1
27	7811	716.8	6
27	7818	717.30333758895	4
27	7825	717.812097387522	4
27	7831	718.016194427957	1
27	7836	718.319918466541	2
27	7843	718.82321926288	4
27	7849	719.228756353027	3
27	7854	719.52945802666	2
27	7859	719.829875286908	2
27	7886	722.9	9
27	7891	723.3	3
27	7895	723.500172779127	1
27	7906	724.20553729623	6
27	7913	724.705571553322	4
27	7921	725.311791910355	5
27	7932	726.011993647341	6
27	7937	726.315483231888	2
27	7943	726.716888301182	3
27	7950	727.226347083943	4
27	7956	727.634097874602	3
27	7965	728.140640501887	4
27	7990	732.7	7
27	7997	733.3	5
27	8003	733.70127119868	3
27	8014	734.407290632745	6
27	8023	735.01220548174	5
27	8032	735.714543209219	6
27	8051	738.1	1
27	8056	738.5	3
27	8061	738.807395975154	2
27	8068	739.313409370376	4
27	8073	739.616536474161	2
27	8083	740.218067748782	5
27	8087	740.42539789014	1
27	8093	740.829753424597	3
27	8118	744.7	7
27	8127	745.5	7
27	8139	746.301068950351	7
27	8147	746.910972779378	5
27	8159	747.918711574972	9
27	8170	748.620767305468	6
27	8178	749.225213253067	5
27	8196	752.3	3
27	8200	752.6	2
27	8210	753.405847617203	7
27	8223	754.111832800487	6
27	8227	754.318526405871	1
27	8232	754.6234332145	2
27	8236	754.833058230427	1
27	8244	755.440590003353	5
27	8248	755.646584139022	1
27	8257	756.154149060997	4
27	8267	756.95899230045	7
27	8275	757.563896328888	5
27	8296	760.3	3
27	8302	760.8	4
27	8308	761.205342483255	3
27	8317	761.913209499095	6
27	8330	762.81456901079	8
27	8340	763.62283118592	7
27	8363	766.5	5
27	8372	767.3	7
27	8384	768.102667429589	7
27	8394	768.90350481643	7
27	8402	769.508253111752	5
27	8408	769.91580124412	3
27	8419	770.619576993652	6
27	8429	771.426546582106	7
27	8441	772.229114172578	7
27	8450	772.934662823221	6
27	8458	773.541955363573	5
27	8487	777.1	11
27	8495	777.8	6
27	8506	778.506565940105	6
27	8514	779.110210091289	5
27	8523	779.816954945799	6
27	8530	780.119594240538	2
27	8537	780.628168619468	4
27	8545	781.228834890278	5
27	8552	781.737000866932	4
27	8562	782.337902392394	5
27	8571	783.038575348249	6
27	8577	783.440984877674	3
27	8599	786.4	4
27	8607	787.1	6
27	8616	787.800937846964	6
27	8623	788.108938503989	2
27	8629	788.515268185073	3
27	8635	788.918886237132	3
27	8644	789.628470378559	6
27	8664	792.2	2
27	8668	792.5	2
27	8673	792.710068883425	1
27	8677	792.912640594331	1
27	8686	793.326630826319	3
27	8707	796.3	3
27	8717	797.2	8
27	8725	797.806075243398	5
27	8740	798.908269218215	10
27	8749	799.61793502658	6
27	8758	800.125265099595	4
27	8766	800.732568350015	5
27	8793	804.9	9
27	8802	805.7	7
27	8817	806.806818646879	10
27	8824	807.313134938717	4
27	8828	807.5190033467	1
27	8838	808.11943805862	5
27	8845	808.624160409525	4
27	8854	809.330207967396	6
27	8865	810.031491882008	6
27	8871	810.437970186058	3
27	8876	810.743560223507	2
27	8902	814.8	8
27	8907	815.2	3
27	8913	815.605300170667	3
27	8922	816.112747129364	4
27	8930	816.714938984165	5
27	8938	817.319951282104	5
27	8945	817.8235734986	4
27	8952	818.126217237126	2
27	8961	818.82740501101	6
27	8967	819.235355397943	3
27	8973	819.63920847933	3
27	8983	820.244074177182	5
27	9014	825.3	13
27	9017	825.5	1
27	9026	826.00620303739	4
27	9032	826.410781557871	3
27	9042	827.220080558293	7
27	9047	827.523162187557	2
27	9056	828.027274782362	4
27	9083	832.9	9
27	9089	833.4	4
27	9095	833.805385252116	3
27	9103	834.206199069474	3
27	9111	834.808693819678	5
27	9116	835.112861712673	2
27	9129	836.019568536186	8
27	9148	840.1	1
27	9154	840.6	4
27	9160	841.007695044556	3
27	9164	841.211677179802	1
27	9185	844.3	3
27	9193	845	6
27	9202	845.704493566926	6
27	9209	846.007369290778	2
27	9215	846.411209813655	3
27	9223	847.015209161639	5
27	9232	847.723186624792	6
27	9243	848.431309028574	6
27	9250	848.93358518763	4
27	9257	849.345299849849	3
27	9263	849.647993762989	2
27	9276	850.552207874823	8
27	9299	854.5	5
27	9304	854.9	3
27	9315	855.800445899607	8
27	9328	856.705425060619	8
27	9339	857.605844279408	8
27	9347	858.015250192928	3
27	9360	859.116937327858	10
27	9389	863.1	11
27	9393	863.4	2
27	9405	864.208977450949	7
27	9416	865.112036142125	8
27	9422	865.51442318942	3
27	9443	868.3	3
27	9451	869	6
27	9460	869.705682462998	6
27	9473	870.612922367837	8
27	9482	871.317467085732	6
27	9488	871.722555797683	3
27	9500	872.522760365846	7
27	9509	873.230512262804	6
27	9513	873.433651722073	1
27	9526	874.337792923373	8
27	9566	879	10
27	9574	879.7	6
27	9584	880.303428931317	5
27	9588	880.509202864243	1
27	9594	880.91651160711	3
27	9600	881.319042484881	3
27	9612	882.125351281547	7
27	9639	887.2	12
27	9643	887.5	2
27	9653	888.101310083966	5
27	9659	888.504440671321	3
27	9669	889.31213352433	7
27	9673	889.519443770256	1
27	9694	892.3	3
27	9700	892.8	4
27	9709	893.505921037886	6
27	9719	894.109266891013	5
27	9728	894.816068066543	6
27	9740	895.819219710515	9
27	9755	896.824102877286	9
27	9761	897.23340017285	3
27	9787	900.8	8
27	9796	901.6	7
27	9806	902.208148076869	5
27	9815	902.81710565378	5
27	9825	903.626930027597	7
27	9833	904.027179315432	3
27	9856	908.5	5
27	9862	909	4
27	9869	909.506268847805	4
27	9874	909.80747251774	2
27	9884	910.416488835276	5
27	9888	910.621180412403	1
27	9900	911.626343875091	9
27	9912	912.435998313235	7
27	9920	913.043200283044	5
27	9943	916.5	5
27	9949	917	4
27	9957	917.515140759786	4
27	9962	917.822646413309	2
27	9972	918.431299043049	5
27	9984	919.432587460207	9
27	9994	920.042365473718	5
27	10002	920.647452399571	5
27	10027	924.7	7
27	10036	925.5	7
27	10042	925.90426867353	3
27	10053	926.614099570535	6
27	10061	927.215073338785	5
27	10067	927.622394618553	3
27	10080	928.530924976349	8
27	10101	932.3	3
27	10105	932.6	2
27	10114	933.305837231816	6
27	10121	933.811194581351	4
27	10131	934.413700893897	5
27	10144	935.519112238202	10
27	10153	936.028349892033	4
27	10180	940.9	9
27	10185	941.3	3
27	10190	941.606672348077	2
27	10198	942.016442517374	3
27	10203	942.322644951395	2
27	10213	943.13070649082	7
27	10217	943.337568534795	1
27	10237	946.5	5
27	10242	946.9	3
27	10248	947.306747237995	3
27	10256	947.912798342075	5
27	10265	948.416934195362	4
27	10271	948.822583131944	3
27	10278	949.324102526635	4
27	10283	949.629166156428	2
27	10288	949.937265479433	2
27	10295	950.242944583113	2
27	10320	954.7	7
27	10330	955.6	8
27	10342	956.409062915656	7
27	10349	956.912823139168	4
27	10359	957.72177188557	7
27	10372	958.630867788171	8
27	10384	959.635523682086	9
27	10406	962.4	4
27	10411	962.8	3
27	10423	963.80850423007	9
27	10430	964.111840791485	2
27	10437	964.616382554426	4
27	10442	964.829981021387	1
27	10464	968.4	4
27	10474	969.3	8
27	10485	970.003507421219	6
27	10492	970.512168888984	4
27	10499	971.017164792733	4
27	10506	971.519274007142	4
27	10528	974.4	4
27	10540	975.5	10
27	10550	976.108233557967	5
27	10561	977.015046620885	8
27	10572	977.917406720813	8
27	10580	978.223296256887	2
27	10591	979.131800392118	8
27	10600	979.839472473311	6
27	10613	980.748354578277	8
27	10624	981.648624614058	8
27	10635	982.354724442744	6
27	10656	986.3	3
27	10667	987.3	9
27	10678	988.008018796215	6
27	10687	988.70881179965	6
27	10695	989.309031272001	5
27	10706	990.010941763025	6
27	10715	990.715644405133	6
27	10724	991.422399510776	6
27	10734	992.029106575259	5
27	10742	992.638274419863	5
27	10766	996.6	6
27	10775	997.4	7
27	10786	998.109647078637	6
27	10795	998.814665254346	6
27	10805	999.617170421973	7
27	10820	1000.724536638653	10
27	10825	1001.031712099522	2
27	10839	1002.034936855094	9
27	10857	1006	0
27	10866	1006.8	7
27	10878	1007.809815667748	9
27	10889	1008.517438104258	6
27	10893	1008.71905285775	1
27	10915	1012.4	4
27	10919	1012.7	2
27	10925	1012.915690481931	1
27	10935	1013.718666323391	7
27	10942	1014.024714047096	2
27	10946	1014.229373598431	1
27	10951	1014.538524874378	2
27	10972	1018.3	3
27	10980	1019	6
27	10986	1019.404175812941	3
27	10993	1019.907121210406	4
27	11045	1023	10
27	11048	1023.2	1
27	11062	1024.206841512029	9
27	11069	1024.710164814218	4
27	11080	1025.611745348851	8
27	11094	1026.616223416997	9
27	11106	1027.523641420752	8
27	11135	1031.1	11
27	11143	1031.8	6
27	11156	1032.703767918718	8
27	11161	1033.008456572221	2
27	11169	1033.61390175354	5
27	11183	1034.618729868233	9
27	11192	1035.324322164621	6
27	11200	1035.932659881765	5
27	11222	1038.6	6
27	11225	1038.8	1
27	11230	1039.103834457623	2
27	11239	1039.812604087514	6
27	11246	1040.119606316997	2
27	11254	1040.721873228947	5
27	11265	1041.62752159946	8
27	11270	1041.934422749847	2
27	11282	1042.736526933349	7
27	11291	1043.440980067112	6
27	11312	1046.3	3
27	11319	1046.9	5
27	11328	1047.607694964711	6
27	11333	1047.912392869481	2
27	11340	1048.21526513743	2
27	11345	1048.519718032533	2
27	11351	1048.921572727209	3
27	11366	1050.028281649967	10
27	11397	1054.3	3
27	11405	1055	6
27	11415	1055.805419154481	7
27	11430	1056.905856358271	10
27	11439	1057.608495998607	6
27	11449	1058.209034896151	5
27	11469	1062.2	2
27	11477	1062.9	6
27	11488	1063.80572038897	8
27	11498	1064.414114395858	5
27	11508	1065.221342977542	7
27	11513	1065.524062576168	2
27	11533	1068.2	2
27	11539	1068.7	4
27	11546	1069.205520927703	4
27	11553	1069.714019104691	4
27	11562	1070.221191217088	4
27	11576	1071.425622352316	11
27	11583	1071.932287978786	4
27	11591	1072.33441337472	3
27	11598	1072.8369613445	4
27	11605	1073.337911121399	4
27	11612	1073.84543629067	4
27	11622	1074.446750320719	5
27	11629	1074.953541986976	4
27	11634	1075.263252961497	2
27	11654	1078.2	2
27	11660	1078.7	4
27	11670	1079.502225792703	7
27	11679	1080.010419521813	4
27	11689	1080.814506842435	7
27	11694	1081.122542649695	2
27	11701	1081.628380171895	4
27	11725	1084.6	6
27	11728	1084.8	1
27	11732	1085.004738987432	1
27	11740	1085.60496050327	5
27	11749	1086.114427331231	4
27	11757	1086.721699314598	5
27	11782	1090.7	7
27	11790	1091.4	6
27	11801	1092.102204216236	6
27	11809	1092.710163043603	5
27	11813	1092.911355725909	1
27	11821	1093.511430556734	5
27	11825	1093.71646603637	1
27	11846	1096.3	3
27	11856	1097.2	8
27	11869	1098.104788420232	8
27	11876	1098.61082932921	4
27	11883	1099.111589635846	4
27	11887	1099.317172951589	1
27	11894	1099.819336900366	4
27	11914	1102.2	2
27	11919	1102.6	3
27	11926	1103.103006108817	4
27	11932	1103.512545824376	3
27	11937	1103.812717385219	2
27	11946	1104.318348236362	4
27	11959	1105.42375328847	10
27	11971	1106.224163259337	7
27	11976	1106.52449443662	2
27	11982	1106.931385295767	3
27	11988	1107.339029699814	3
27	11994	1107.745935096913	3
27	12003	1108.252361140355	4
27	12012	1108.952368392126	6
27	12034	1112.4	4
27	12044	1113.3	8
27	12048	1113.504865840128	1
27	12060	1114.314042933	7
27	12071	1115.220958060767	8
27	12089	1116.626517101265	13
27	12097	1117.234328604428	5
27	12102	1117.537934003028	2
27	12132	1121.2	12
27	12137	1121.6	3
27	12150	1122.500756112365	8
27	12159	1123.200773988012	6
27	12166	1123.708237041686	4
27	12177	1124.412453334815	6
27	12187	1125.218663084152	7
27	12194	1125.72592639994	4
27	12203	1126.228609620347	4
27	12229	1130.8	8
27	12238	1131.6	7
27	12250	1132.408124530273	7
27	12261	1133.312268243042	8
27	12276	1134.420417937649	10
27	12283	1134.925266588682	4
27	12287	1135.130636132194	1
27	12296	1135.832344368395	6
27	12310	1136.841075351346	9
27	12323	1137.944350577963	10
27	12332	1138.449857348974	4
27	12337	1138.753187603859	2
27	12343	1139.161819635913	3
27	12366	1142.6	6
27	12372	1143.1	4
27	12378	1143.505397732255	3
27	12384	1143.908303575096	3
27	12392	1144.313324464111	3
27	12401	1145.020684316603	6
27	12406	1145.325220603263	2
27	12425	1148.4	4
27	12439	1149.7	12
27	12452	1150.609684675731	8
27	12457	1150.918526649697	2
27	12485	1155	10
27	12490	1155.4	3
27	12497	1155.905495590684	4
27	12507	1156.509923908109	5
27	12514	1157.013245644747	4
27	12519	1157.32191421519	2
27	12526	1157.828536145444	4
27	12532	1158.030010873271	1
27	12552	1162.2	2
27	12556	1162.5	2
27	12564	1163.104099436383	5
27	12572	1163.706281949872	5
27	12576	1163.916139089336	1
27	12582	1164.120997444832	1
27	12607	1168.7	7
27	12610	1168.9	1
27	12618	1169.508052116071	5
27	12624	1169.915435174314	3
27	12638	1170.923762165069	9
27	12644	1171.329240134079	3
27	12666	1174.4	4
27	12671	1174.8	3
27	12679	1175.401403624396	5
27	12684	1175.612504169422	1
27	12707	1178.5	5
27	12715	1179.2	6
27	12721	1179.609647279183	3
27	12730	1180.11660013195	4
27	12740	1180.923745753326	7
27	12749	1181.628390394119	6
27	12771	1184.4	4
27	12778	1185	5
27	12784	1185.403921777764	3
27	12791	1185.90749603239	4
27	12798	1186.213929166655	2
27	12805	1186.716742845655	4
27	12812	1187.224644504303	4
27	12820	1187.736590073794	4
27	12840	1190.4	4
27	12845	1190.8	3
27	12850	1191.101871618262	2
27	12857	1191.610932039133	4
27	12869	1192.419295470995	7
27	12878	1193.12057347812	6
27	12883	1193.426462689829	2
27	12904	1196.3	3
27	12908	1196.6	2
27	12916	1197.208085891671	5
27	12928	1198.008777397115	7
27	12936	1198.610639684212	5
27	12941	1198.91880657945	2
27	12953	1199.92252525661	9
27	12959	1200.126372184903	1
27	12969	1200.93338910236	7
27	12977	1201.536356479404	5
27	12987	1202.136953740799	5
27	13014	1206.9	9
27	13022	1207.6	6
27	13026	1207.80526643495	1
27	13034	1208.211477464951	3
27	13040	1208.611716593891	3
27	13048	1209.219279363991	5
27	13057	1209.921118640487	6