version 2
run Join-97-20130429-13:11:18-17679
attr configname Join
attr datetime 20130429-13:11:18
attr experiment "\"Join\""
attr inifile omnetpp.ini
attr iterationvars $0=16384
attr iterationvars2 "$0=16384, $repetition=7"
attr measurement $0=16384
attr network Network
attr processid 17679
attr repetition 7
attr replication #7
attr resultdir results
attr runnumber 97
attr seedset 97

vector 97  Network.dyn_peer[0]  lookupHopsSig:vector  ETV
97	43601	20.414523663447	64
97	43680	27.522533375893	70
97	43737	32.426407348855	48
97	43790	37.135459637333	46
97	43844	41.938085872059	47
97	43991	55.046674204841	130
97	44060	59.5	15
97	44209	66.1	65
97	44360	77.0034798828	108
97	44406	81.0102657938	39
97	44466	86.220135108318	51
97	44492	88.420475648284	21
97	44542	92.822122443864	43
97	44568	95.024544584477	21
97	44649	102.124629987273	70
97	44834	121.5	155
97	44880	125.6	40
97	44922	129.20685127797	35
97	44961	132.516848927041	32
97	44974	133.617663732591	10
97	44992	135.018742635327	13
97	45062	141.220060674701	61
97	45150	149.020868697046	77
97	45399	162	100
97	45580	170.5	84
97	45696	175.900386227741	53
97	45898	185.307419571584	93
97	45956	188.615575644181	32
97	46021	194.323754251408	56
97	46066	198.226778330041	38
97	46149	205.732140680299	74
97	46255	215.141142698737	93
97	46307	219.751007123879	45
97	46392	227.257491918754	74
97	46466	235.2	52
97	46532	241.1	58
97	46618	248.70103462323	75
97	46712	257.107859652744	83
97	46775	262.609238560126	54
97	46845	268.819025206347	61
97	46902	273.928422692387	50
97	46921	275.431241721775	14
97	46945	277.436323498823	19
97	46963	278.841584656278	13
97	47061	287.650732172636	87
97	47102	292.3	23
97	47127	294.5	21
97	47173	298.500803086478	39
97	47246	305.006058684542	64
97	47304	310.010303229672	49
97	47360	315.013998356495	49
97	47459	323.920573168802	88
97	47526	329.824912550558	58
97	47632	339.23484947244	93
97	47701	345.340222163617	60
97	47802	354.249331896519	88
97	47892	362.253162129409	79
97	47908	363.654053832294	13
97	48047	370.8	48
97	48154	375.8	49
97	48270	381.104036015693	52
97	48393	388.507622839845	73
97	48428	391.609649118992	30
97	48536	401.214019380012	95
97	48572	404.219530933436	29
97	48608	407.429373298403	31
97	48768	423	130
97	48850	430.3	72
97	48862	431.309953441752	9
97	48904	434.910853392164	35
97	48938	437.916051179325	29
97	48992	442.520716089884	45
97	49020	444.924562410889	23
97	49074	449.734067936015	47
97	49171	459.5	75
97	49212	463.1	35
97	49304	471.304756066985	81
97	49392	479.112932410921	77
97	49455	484.617469795966	54
97	49504	488.918764562679	42
97	49573	496.7	47
97	49659	504.4	76
97	49751	512.600207845985	81
97	49817	518.402390902139	57
97	49831	519.609370557531	11
97	49895	525.209387364692	55
97	49915	526.813556597879	15
97	49956	530.319829492833	34
97	50009	535.022986918593	46
97	50075	540.83272213103	57
97	50174	549.740556814281	88
97	50225	555.1	31
97	50304	562.1	69
97	50346	565.905344049939	37
97	50468	576.715124938736	107
97	50540	583.123347740579	63
97	50612	591	50
97	50671	596.2	51
97	50710	599.702414029135	34
97	50763	604.203738857453	44
97	50807	608.010553612242	37
97	50858	612.510740137203	44
97	50900	616.115359975076	35
97	51026	630.1	101
97	51038	631.2	10
97	51089	635.707578130387	44
97	51181	643.908065097904	81
97	51216	646.81576416198	28
97	51406	665.8	158
97	51438	668.5	26
97	51469	671.204322584462	26
97	51556	678.908200825431	76
97	51574	680.309753038023	13
97	51595	682.011967262408	16
97	51645	686.416350473567	43
97	51671	688.620952612793	21
97	51756	696.123291353998	74
97	51850	702.7	27
97	51972	712.9	101
97	52006	715.900308749445	29
97	52111	725.209724777738	92
97	52208	735.3	73
97	52249	738.9	35
97	52335	746.506856195654	75
97	52385	750.906984071563	43
97	52430	754.808273975657	38
97	52483	759.514196968598	46
97	52573	767.521750654527	79
97	52626	772.03040884674	44
97	52667	775.73850677729	36
97	52721	780.343465036066	45
97	52748	782.643553413751	22
97	52964	802.046019787816	193
97	53078	814.8	88
97	53104	817.1	22
97	53190	824.701271443106	75
97	53245	829.602255961564	48
97	53282	832.708733821231	30
97	53311	835.211438627887	24
97	53324	836.11730335513	8
97	53339	837.426186613595	12
97	53403	844.2	42
97	53449	848.3	40
97	53517	854.306431385125	59
97	53527	855.110857173143	7
97	53602	861.815547691387	66
97	53622	863.418691222203	15
97	53672	867.824613878883	43
97	53825	882.6	126
97	53874	887	43
97	53922	891.209771773365	41
97	54034	901.216175968418	99
97	54053	902.721933004214	14
97	54119	908.523849210909	57
97	54155	911.731484100038	31
97	54211	917.9	39
97	54277	923.8	58
97	54349	930.004430053012	61
97	54395	934.006149858812	39
97	54449	938.806345345939	47
97	54505	943.808535688058	49
97	54579	950.210790729878	63
97	54649	956.419768404424	61
97	54703	961.221487169078	47
97	54746	964.926486436027	36
97	54866	977.4	94
97	54926	982.7	52
97	54988	988.105711886917	53
97	55058	994.30711272562	61
97	55117	999.615133572424	52
97	55176	1004.716007273528	50
97	55291	1015.025371321945	102
97	55372	1022.128423161976	70
97	55474	1031.331883893223	91
97	55564	1039.33970631347	79
97	55725	1053.845431744469	144
97	55907	1062.9	69
97	56103	1072.1	91
97	56227	1077.90076762997	57
97	56399	1085.809594986538	78
97	56567	1093.619482289747	77
97	56655	1097.624112493489	39
97	56699	1099.624790327325	19
97	56783	1105.331721330184	56
97	56878	1113.841401294575	84
97	56945	1120.6	46
97	56985	1124.1	34
97	57100	1134.40139884676	102
97	57215	1144.709110950817	102
97	57306	1152.811494452316	80
97	57381	1159.513907622027	66
97	57475	1167.918359589812	83
97	57550	1175.6	56
97	57624	1182.1	64
97	57672	1186.300742393787	41
97	57715	1190.0089052077	36
97	57754	1193.509147212942	34
97	57771	1194.814509001789	12
97	57819	1199.019741387826	41
97	57849	1203.5	15
97	57986	1215.9	123
97	58025	1219.207950676684	32
97	58116	1227.316928731945	80
97	58206	1235.325866387301	79
97	58262	1240.13191998489	47
97	58346	1247.737997473103	75
97	58403	1252.643243910714	48
97	58468	1260.5	45
97	58513	1264.5	39
97	58712	1282.405010942604	178
97	58759	1286.509519967207	40
97	58833	1293.114710946391	65
97	58869	1296.118787253476	29
97	59050	1306.8	68
97	59089	1308.6	17
97	59190	1313.303801739041	46
97	59246	1317.407066336483	40
97	59340	1325.809002771928	83
97	59363	1327.717848425538	18
97	59439	1334.320724740519	65
97	59504	1340.024967023319	56
97	59596	1348.229338936047	81
97	59644	1352.435863438451	41
97	59671	1354.739232985027	22
97	59722	1361.3	33
97	59769	1365.5	41
97	59834	1371.203107533962	56
97	59908	1377.808614360359	65
97	59976	1383.816965668801	59
97	60027	1388.122576752532	42
97	60110	1395.625713800879	74
97	60184	1402.029529404652	63
97	60266	1409.436869443727	73
97	60366	1418.240038127156	87
97	60399	1421.140470512471	28
97	60484	1428.641929064254	74
97	60509	1432.8	8
97	60574	1438.6	57
97	60664	1446.603354772692	79
97	60697	1449.50837811717	28
97	60742	1453.410694785811	38
97	60848	1464	80
97	60871	1466	19
97	60936	1471.907699391143	58
97	60970	1474.716622060762	27
97	61006	1477.921124613875	31
97	61051	1481.825785520531	38
97	61086	1484.735680521743	28
97	61202	1497.3	93
97	61346	1510.2	128
97	61399	1514.904608506243	46
97	61543	1527.905067972782	129
97	61680	1540.014377149067	120
97	61737	1545.123324100385	50
97	61803	1550.931702075719	57
97	61822	1552.438998215507	14
97	61860	1555.840166916056	33
97	61934	1562.247499947247	63
97	61988	1567.04815153581	47
97	62019	1569.755398596615	26
97	62055	1572.762523004397	29
97	62146	1577.1	11
97	62534	1591.3	141
97	62626	1595.500682041752	41
97	62664	1597.100742931125	15
97	62704	1598.90399480908	17
97	62780	1602.213748441511	32
97	62824	1604.216153486338	19
97	63046	1614.417063421038	101
97	63378	1627.7	97
97	63433	1632.5	47
97	63487	1637.303853967138	47
97	63547	1642.512988728067	51
97	63627	1649.713964663707	71
97	63683	1654.521932214719	47
97	63725	1658.129127331303	35
97	63786	1663.633210012541	54
97	63848	1669.035066991155	53
97	63902	1673.836679737435	47
97	63953	1678.137760684704	42
97	64183	1698	160
97	64239	1703.1	50
97	64260	1704.80155722598	16
97	64269	1705.504903225851	6
97	64297	1707.908295672837	23
97	64373	1714.513440548405	65
97	64475	1723.714975117095	91
97	64498	1725.623148668132	18
97	64514	1726.824276672497	11
97	64579	1732.52956716513	56
97	64616	1735.836224358449	32
97	64683	1741.736642430559	58
97	64701	1743.14079273942	13
97	64724	1746.6	6
97	64760	1749.9	32
97	64845	1757.405545191653	74
97	64958	1767.514061165638	100
97	64980	1769.320718306973	17
97	65020	1772.726490743997	33
97	65060	1776.133312903457	33
97	65124	1781.940140730925	57
97	65255	1788.2	42
97	65362	1793.3	50
97	65396	1794.803054405653	14
97	65599	1810.711783742347	158
97	65630	1813.412504548268	26
97	65720	1821.412821788429	79
97	65813	1829.718540401567	82
97	65960	1842.819768032777	130
97	66099	1850.8	48
97	66214	1856	51
97	66344	1862.007143105061	59
97	66445	1869.309063090034	72
97	66491	1873.318537806069	39
97	66521	1875.927688626324	25
97	66608	1883.632939874816	76
97	66757	1898.2	122
97	66885	1909.9	116
97	67016	1921.600036174121	116
97	67094	1928.405120163186	67
97	67192	1937.213509579211	87
97	67322	1948.822966404299	115
97	67453	1960.532937921914	116
97	67545	1971.1	71
97	67553	1971.8	6
97	67617	1977.40066920951	55
97	67704	1985.10260488922	76
97	67800	1993.706110522989	85
97	67904	2002.913327427673	91
97	68000	2011.514793588685	85
97	68023	2014.8	8
97	68099	2021.7	68
97	68114	2022.801778337843	10
97	68159	2026.70937088173	38
97	68204	2030.609505821802	38
97	68233	2033.116632505662	24
97	68272	2036.425032574468	32
97	68337	2042.130141016415	56
97	68363	2044.333718341146	21
97	68397	2047.343362319599	29
97	68482	2054.845039518488	74
97	68510	2057.247771495839	23
97	68560	2061.652174317203	43
97	68615	2066.360461939838	46
97	68674	2071.66599031702	52
97	68939	2084.8	108
97	68961	2086.7	18
97	69052	2094.806137341912	80
97	69079	2097.112791909444	22
97	69101	2098.920899208936	17
97	69138	2102.030482457429	30
97	69150	2103.030701906392	9
97	69178	2105.435777460762	23
97	69218	2108.840828336192	33
97	69262	2112.644967468479	37
97	69321	2117.95091582044	52
97	69389	2123.956500688434	59
97	69461	2130.165346267084	61
97	69740	2145.4	114
97	69829	2149.5	40
97	69875	2151.604542322866	20
97	69921	2153.710021745631	20
97	70013	2157.916267114582	41
97	70051	2159.618230464824	16
97	70187	2165.92421513227	62
97	70259	2172.126124500864	61
97	70323	2177.926924967196	57
97	70353	2180.334227882126	23
97	70421	2186.342626047181	59
97	70503	2196	60
97	70558	2201	49
97	70641	2208.30131989693	72
97	70694	2213.00285378189	46
97	70770	2219.81098982724	67
97	70847	2226.513319560877	66
97	70956	2236.214616099375	96
97	70992	2239.416851113292	31
97	71127	2246.6	46
97	71206	2250.6	39
97	71239	2253.503137847997	28
97	71336	2262.004689043363	84
97	71364	2264.410401230674	23
97	71396	2267.211996292167	27
97	71414	2268.618687986349	13
97	71427	2269.726982831737	10
97	71444	2271.027367621065	12
97	71551	2280.533976928434	94
97	71639	2288.342010258045	77
97	71694	2293.247918948607	48
97	71752	2298.252203648436	49
97	71790	2301.661434836388	33
97	71808	2303.066875636948	13
97	71873	2308.776473299092	56
97	72071	2322.2	102
97	72120	2326.6	43
97	72178	2331.806375030474	51
97	72197	2333.309148262503	14
97	72265	2339.310628717328	59
97	72325	2344.517374849322	51
97	72400	2351.219861819735	66
97	72461	2356.529281154612	52
97	72506	2360.436639731886	38
97	72577	2366.740877760191	62
97	72639	2372.150254545361	53
97	72784	2381.1	51
97	72895	2386.2	50
97	72955	2388.909057894072	26
97	73074	2394.418672444573	54
97	73183	2399.522370569186	50
97	73296	2404.628149960077	50
97	73405	2409.732001972446	50
97	73563	2417.7	57
97	73666	2423.3	55
97	73753	2431.004762772079	76
97	73825	2437.411093015891	63
97	73885	2442.611753975575	51
97	73961	2449.419264864521	67
97	74001	2452.820437678943	33
97	74018	2454.125124385705	12
97	74046	2456.533655293966	23
97	74265	2468.5	85
97	74394	2474.5	59
97	74526	2480.501205639701	59
97	74616	2486.804932706161	62
97	74683	2492.710902109137	58
97	74750	2498.618265046344	58
97	74817	2504.527793467521	58
97	74864	2508.629490098118	40
97	74910	2512.636788587095	39
97	74934	2514.646636444937	19
97	75074	2529.4	114
97	75124	2533.9	44
97	75158	2536.709861267048	27
97	75171	2537.816251246952	10
97	75215	2541.620162507986	37
97	75246	2544.122024582723	24
97	75380	2556.126034854399	119
97	75476	2567.5	75
97	75521	2571.5	39
97	75568	2575.608908806655	40
97	75625	2580.513922311249	48
97	75655	2583.11970019835	25
97	75738	2590.427655991045	72
97	75780	2594.029243711413	35
97	75866	2601.835448341167	77
97	75885	2603.342959773261	14
97	75965	2610.347032537944	69
97	76039	2616.947204297547	65
97	76128	2624.856303705234	78
97	76287	2641.1	131
97	76324	2644.3	31
97	76367	2648.004573421168	36
97	76401	2651.009710657824	29
97	76465	2656.618317976877	55
97	76542	2663.527258483624	68
97	76582	2666.935068465094	33
97	76616	2669.935537981793	29
97	76660	2673.740869749795	37
97	76690	2676.15032894044	23
97	76716	2678.350813166832	21
97	76831	2690.9	89
97	76860	2693.5	25
97	76878	2694.901584834954	13
97	76900	2696.708619364583	17
97	76977	2703.61812842768	68
97	77014	2706.720733412057	30
97	77056	2710.326733487858	35
97	77111	2715.231580034996	48
97	77194	2722.540906426819	72
97	77251	2729.7	37
97	77374	2740.7	109
97	77416	2744.301929299354	35
97	77470	2749.107518196215	47
97	77561	2757.207745313185	80
97	77662	2767.7	77
97	77712	2772	42
97	77761	2776.307890411205	42
97	77776	2777.613163662244	12
97	77854	2784.419922094567	67
97	77909	2789.321690596754	48
97	77936	2791.630352579911	22
97	77978	2795.233539786815	35
97	78019	2798.740854240726	34
97	78072	2803.449662184715	46
97	78148	2810.050974856342	65
97	78264	2823.2	92
97	78413	2836.6	133
97	78488	2843.308219103198	66
97	78526	2846.516160936029	31
97	78570	2850.324808733041	37
97	78631	2855.828076835113	54
97	78667	2858.835748582437	29
97	78802	2872.7	107
97	78805	2872.9	1
97	78903	2881.707783981557	87
97	78971	2887.716691612696	59
97	79060	2895.626159928491	78
97	79147	2903.328960856419	76
97	79204	2908.232673433328	48
97	79265	2913.738057670174	54
97	79372	2924.3	83
97	79394	2926.2	18
97	79446	2930.802313386518	45
97	79480	2933.804274592422	29
97	79613	2945.712687229205	118
97	79746	2957.618214766923	118
97	79786	2961.022168720394	33
97	79831	2966.8	28
97	79916	2974.4	75
97	79963	2978.509205290672	40
97	80042	2985.615135088913	70
97	80076	2988.417224796349	27
97	80111	2991.52423689149	30
97	80159	2995.731719776949	41
97	80193	2998.534948083328	27
97	80257	3004.142942564187	55
97	80350	3012.442998903645	82
97	80403	3019.4	34
97	80474	3025.8	63
97	80503	3028.106687338966	22
97	80565	3033.713764002387	55
97	80628	3039.2204167733	54
97	80701	3045.724885980112	64
97	80777	3052.333374242335	65
97	80841	3060.5	45
97	80954	3070.7	101
97	80997	3074.404675916554	36
97	81004	3074.90917801503	4
97	81048	3078.713454291407	37
97	81115	3084.618368095577	58
97	81164	3088.923409647031	42
97	81224	3094.130840731039	51
97	81291	3100.034215176121	58
97	81310	3104.3	3
97	81405	3112.9	85
97	81526	3123.801652161553	108
97	81584	3128.802055451345	49
97	81706	3139.806937879965	109
97	81829	3150.70866301341	108
97	81930	3159.813806464637	90
97	81980	3164.015351725919	41
97	82102	3175.016015415682	109
97	82222	3185.822520403658	107
97	82382	3193.8	58
97	82599	3203.9	100
97	82803	3214.101909784921	101
97	82916	3224.207721908855	100
97	83029	3234.309729268638	100
97	83116	3242.019179086413	76
97	83253	3254.325189591124	122
97	83390	3266.628484367224	122
97	83439	3270.934449203515	42
97	83483	3274.741597659578	37
97	83619	3286.945193648312	121
97	83756	3299.253596101549	122
97	83937	3317.1	151
97	83988	3321.7	45
97	84030	3325.302155119159	35
97	84094	3330.910995560657	55
97	84203	3340.620607717594	96
97	84238	3343.728236053991	30
97	84302	3349.335779737734	55
97	84326	3351.340179997258	19
97	84363	3354.442870428563	30
97	84373	3355.243249332547	7
97	84435	3360.650770091657	53
97	84613	3378.8	148
97	84705	3387.1	82
97	84771	3392.90036495635	57
97	84812	3396.404034912534	34
97	84905	3404.710065893313	82
97	84996	3412.81100388788	80
97	85062	3418.61366356887	57
97	85128	3424.41703003957	57
97	85219	3432.521113121533	80
97	85294	3439.228294692821	66
97	85380	3446.829794285622	75
97	85440	3452.030042755844	51
97	85531	3460.133230616269	80
97	85578	3466.9	29
97	85624	3471	40
97	85726	3480.003977417198	89
97	85760	3483.009503371063	29
97	85826	3488.813386390047	57
97	85853	3491.116119203498	22
97	85982	3502.619413166651	114
97	86040	3507.820894628078	51
97	86168	3519.230831374825	113
97	86299	3530.938140406425	116
97	86494	3538.4	44
97	86590	3541.5	30
97	86820	3549.707548993108	81
97	86918	3558.012385970846	82
97	86946	3560.413022156265	23
97	87067	3571.315687061723	108
97	87092	3573.419013618866	20
97	87140	3577.621100989218	41
97	87263	3588.522008890545	108
97	87397	3596.6	46
97	87619	3607	103
97	87744	3612.808060119342	57
97	87909	3620.408449566256	75
97	88039	3626.311698669575	58
97	88122	3633.813678716074	74
97	88146	3635.817027624931	19
97	88210	3641.420802499513	55
97	88294	3648.827618596256	73
97	88335	3652.337366621454	34
97	88423	3660.143733572921	77
97	88612	3671.1	71
97	88667	3673.7	25
97	88777	3678.706581691764	49
97	88855	3682.215709542482	34
97	88973	3687.715741888285	54
97	89137	3695.321248550729	75
97	89295	3702.526303033241	71
97	89481	3711.327488191324	87
97	89571	3715.6	16
97	89771	3725	93
97	89865	3729.303900279765	42
97	89908	3731.208596648614	18
97	90063	3738.409058982905	71
97	90146	3742.21493353989	37
97	90226	3745.919984651678	36
97	90363	3752.224621483045	62
97	90553	3762.4	64
97	90690	3769.6	71
97	90735	3773.502726368638	38
97	90796	3778.807181617509	52
97	90883	3786.51461227251	76
97	90908	3788.615644077465	20
97	90962	3793.422045620416	47
97	90996	3796.228112756082	27
97	91064	3801.6	16
97	91120	3804.1	24
97	91173	3806.508127811648	23
97	91275	3811.215360751097	46
97	91313	3812.917802909245	16
97	91429	3818.223451762492	52
97	91587	3825.523754584073	72
97	91697	3830.632945502331	50
97	91745	3832.841065527939	21
97	91821	3836.241313961905	33
97	91931	3841.3456983681	50
97	92002	3846.146070288955	47
97	92093	3856.7	67
97	92167	3863.4	66
97	92199	3866.002663136594	25
97	92261	3871.612351378723	55
97	92359	3880.217548023731	85
97	92440	3887.526332987273	72
97	92508	3893.531999081725	59
97	92567	3898.640620880611	50
97	92592	3900.743721723153	20
97	92698	3912.2	82
97	92753	3917.2	49
97	92821	3923.209143341518	59
97	92883	3928.619118102583	53
97	92950	3934.525252576196	58
97	92999	3938.827428847148	42
97	93119	3949.629703770733	107
97	93227	3959.231485923837	95
97	93336	3968.940293094819	96
97	93423	3976.649091062066	76
97	93496	3983.157353485673	64
97	93603	3992.665278911147	94
97	93622	3994.171987004751	14
97	93771	4010.1	121
97	93815	4014	38
97	93843	4016.400547934796	23
97	93889	4020.402030707965	39
97	93920	4023.106787744999	26
97	94021	4032.008912457454	88
97	94122	4041.116583324464	90
97	94242	4051.916756479666	107
97	94363	4062.626687938971	106
97	94493	4076.2	102
97	94567	4082.9	66
97	94621	4087.705853961789	47
97	94675	4092.309699444285	45
97	94723	4096.516727177501	41
97	94796	4103.023077840667	64
97	94901	4112.329803687726	92
97	94974	4118.837840330284	64
97	95025	4123.346102970754	44
97	95175	4138.2	122
97	95223	4142.5	42
97	95342	4153.200220274655	106
97	95371	4155.709571268954	24
97	95430	4160.812675794006	50
97	95451	4162.516945938069	16
97	95472	4164.224554621662	16
97	95520	4168.427521685814	41
97	95556	4171.630821026452	31
97	95647	4180.9	69
97	95694	4185.1	41
97	95755	4190.40506490461	52
97	95835	4197.613781464902	71
97	95868	4200.313826717889	26
97	95930	4205.918341614614	55
97	96024	4214.126886450653	81
97	96196	4229.728170934189	155
97	96242	4233.728499974007	39
97	96271	4236.034827359061	22
97	96313	4239.843520259354	37
97	96356	4243.552434808881	36
97	96399	4247.257092584277	36
97	96439	4252	20
97	96490	4256.6	45
97	96540	4261.003237196772	43
97	96610	4267.21244376555	61
97	96666	4272.021224536776	47
97	96721	4276.927020556141	48
97	96777	4281.935558201136	49
97	96838	4288.2	42
97	96907	4294.4	61
97	96955	4298.605834753043	41
97	97050	4307.10978057133	84
97	97097	4311.210596455528	40
97	97140	4314.915424100907	36
97	97195	4319.817564278304	48
97	97240	4324.8	28
97	97272	4327.7	28
97	97319	4331.808559055277	40
97	97428	4341.515624204464	96
97	97453	4343.620852098555	20
97	97519	4349.430489571796	57
97	97598	4356.338280138006	68
97	97707	4366.043728942978	96
97	97801	4374.451139554683	83
97	98124	4391.5	135
97	98351	4402.1	105
97	98489	4408.509534034354	63
97	98591	4415.412539071705	68
97	98634	4419.115410782609	36
97	98657	4421.015866806025	18
97	98791	4433.019828679729	119
97	99148	4451.1	151
97	99297	4458.1	69
97	99391	4462.400913222695	42
97	99429	4464.102163039585	16
97	99549	4469.702574721595	55
97	99613	4472.507261022603	27
97	99725	4479.511764019265	69
97	99800	4486.019600005632	64
97	99898	4494.827130292684	87
97	99945	4498.932885196385	40
97	100034	4508.6	66
97	100076	4512.3	36
97	100128	4516.902672036383	45
97	100187	4522.007138891583	50
97	100304	4532.513936996764	104
97	100323	4534.021343150226	14
97	100364	4537.724181104412	36
97	100386	4539.534033644953	17
97	100431	4543.434668338123	38
97	100477	4547.437705172713	39
97	100520	4551.146816207666	36
97	100737	4562.4	84
97	100909	4570.7	82
97	100994	4578.207824397746	74
97	101091	4586.914863354593	86
97	101141	4591.317174409761	43
97	101202	4596.622884429314	52
97	101314	4606.627207698396	99
97	101424	4616.433782058048	97
97	101516	4624.643399461786	81
97	101585	4630.747019540226	60
97	101648	4636.251671560223	54
97	101702	4641.055030388718	47
97	101798	4651.4	74
97	101911	4661.6	101
97	101970	4666.703051481347	50
97	102031	4672.008294499113	52
97	102070	4675.516116022019	34
97	102090	4677.116351513476	15
97	102131	4680.619091935104	34
97	102150	4682.126920024042	14
97	102185	4685.234151783298	30
97	102242	4690.136532674393	48
97	102303	4695.636753592927	54
97	102460	4710.8	128
97	102537	4717.8	69
97	102615	4724.602953959961	67
97	102674	4729.912308528792	52
97	102772	4738.518919288142	85
97	102861	4746.420281892179	78
97	102912	4750.925364885097	44
97	103011	4759.829708294805	88
97	103080	4765.93710012887	60
97	103156	4772.546917364845	65
97	103256	4781.556851901415	89
97	103435	4797.663560732461	160
97	103692	4810.2	102
97	103761	4813.4	31
97	103917	4821.409580831739	79
97	103999	4828.609635887247	71
97	104025	4830.816530774793	21
97	104076	4835.32331717257	44
97	104190	4845.525987842463	101
97	104399	4865.5	175
97	104431	4868.2	26
97	104575	4881.208363649116	129
97	104716	4893.91710766504	126
97	104805	4901.818890503365	78
97	104952	4914.923009856258	130
97	105002	4919.331043562412	43
97	105035	4923.8	18
97	105090	4928.6	47
97	105169	4935.703165300986	70
97	105335	4950.512421628473	147
97	105385	4954.912810058899	43
97	105447	4960.315329408513	53
97	105483	4963.517069995571	31
97	105525	4967.11845498156	35
97	105586	4972.42092337733	52
97	105636	4976.827313923457	43
97	105758	4985.6	56
97	105821	4991.2	55
97	105856	4994.104502318685	28
97	105912	4999.107894737487	49
97	105987	5005.816090467382	66
97	106025	5009.016570128186	31
97	106070	5012.921025657702	38
97	106125	5019.8	38
97	106175	5024.1	42
97	106258	5031.601371781763	74
97	106306	5035.80180789435	41
97	106339	5038.510931636811	26
97	106370	5041.215262516135	26
97	106423	5045.916852538782	46
97	106479	5050.717612722807	47
97	106545	5056.524414385105	57
97	106605	5061.930540041655	53
97	106690	5069.434417905452	74
97	106729	5072.735326031659	32
97	106796	5078.643182234084	58
97	106920	5091.8	98
97	106976	5096.7	48
97	107023	5100.809025850526	40
97	107058	5103.913568974213	30
97	107116	5108.917142013058	49
97	107162	5112.917567823501	39
97	107247	5120.424069059323	74
97	107311	5126.032764464839	55
97	107383	5132.438831610014	63
97	107484	5141.543449507067	90
97	107601	5153.1	91
97	107622	5154.9	17
97	107633	5155.803568080165	8
97	107729	5164.211410154879	83
97	107737	5164.820954927212	5
97	107812	5171.526662655942	66
97	107861	5175.83287016701	42
97	107954	5185.2	72
97	107991	5188.4	31
97	108025	5191.402541736548	29
97	108058	5194.106971135006	26
97	108083	5196.213961667797	20
97	108118	5199.323810398982	30
97	108225	5208.830927410652	94
97	108259	5211.832598524938	29
97	108305	5215.833634550449	39
97	108320	5216.934212135915	10
97	108369	5221.237207300672	42
97	108410	5224.744482080819	34
97	108434	5226.750208795186	19
97	108530	5237.4	74
97	108618	5245.3	78
97	108675	5250.200972011485	48
97	108773	5259.00281341806	87
97	108878	5268.310564782705	92
97	108981	5277.614954803813	92
97	109025	5281.417624064505	37
97	109071	5286.9	29
97	109167	5295.6	86
97	109243	5302.20536573728	65
97	109278	5305.309367999133	30
97	109290	5306.112792806391	7
97	109316	5308.322342451264	21
97	109327	5309.231285673457	8
97	109395	5315.238446571191	59
97	109509	5321.7	37
97	109621	5326.9	51
97	109870	5338.505418389616	115
97	110022	5345.609051619271	70
97	110161	5352.010733892909	63
97	110309	5358.916400524771	68
97	110423	5364.61855171974	56
97	110478	5369.521218560228	48
97	110653	5378.4	64
97	110668	5379.1	6
97	110690	5380.006540529883	8
97	110727	5381.714846688712	16
97	110887	5391.218381847357	94
97	110987	5400.019523201379	87
97	111027	5403.627337636217	35
97	111090	5409.136525693939	54
97	111119	5411.637198896757	24
97	111149	5414.045325878231	23
97	111229	5423.8	58
97	111326	5432.4	85
97	111426	5441.403244453223	89
97	111530	5450.604180352062	91
97	111629	5459.509415591699	88
97	111729	5468.319151873558	87
97	111832	5477.623947740236	92
97	111931	5487.8	78
97	111987	5492.7	48
97	112049	5498.109853936391	53
97	112106	5503.21505410347	50
97	112170	5508.820582377436	55
97	112240	5515.029914564264	61
97	112281	5518.532912760783	34
97	112331	5522.93616988581	43
97	112471	5537.4	114
97	112498	5539.8	23
97	112510	5540.603340016142	7
97	112573	5546.111477143545	54
97	112588	5547.419132502402	12
97	112617	5549.92535803202	24
97	112694	5556.628787224108	66
97	112750	5561.634583482073	49
97	112847	5571.3	73
97	112918	5577.7	63
97	112973	5582.407912041156	46
97	113060	5590.11579456991	76
97	113162	5599.321125258546	91
97	113205	5603.022565264744	36
97	113255	5607.424092732719	43
97	113342	5615.125511786988	76
97	113406	5622.4	44
97	113429	5624.4	19
97	113445	5625.801371161877	13
97	113508	5631.304981641284	54
97	113533	5633.409219195045	20
97	113643	5643.212427431227	97
97	113711	5649.215053400419	59
97	113779	5656.9	49
97	113844	5662.7	57
97	113922	5669.70673564048	69
97	114075	5683.410780273191	136
97	114125	5687.82069459611	43
97	114167	5691.421568719203	35
97	114251	5698.827805678505	73
97	114301	5703.235884967737	43
97	114335	5706.038788625832	27
97	114413	5713.039005333354	69
97	114480	5718.944383020919	58
97	114566	5726.554052069286	75
97	114600	5729.557450349478	29
97	114658	5734.560693704556	49
97	114665	5735.063776696545	4
97	114765	5745.7	77
97	114832	5751.7	59
97	114886	5756.301637892546	45
97	114954	5762.310817551293	59
97	114983	5764.813645039833	24
97	115057	5771.417005568755	65
97	115140	5778.726227031537	72
97	115230	5788.9	69
97	115280	5793.4	44
97	115345	5799.100631175828	56
97	115374	5801.601836326618	24
97	115426	5806.009978674452	43
97	115435	5806.713244212767	6
97	115470	5809.816874055442	30
97	115523	5814.322568091814	44
97	115550	5816.625880511525	22
97	115586	5819.830430514249	31
97	115629	5823.536392916541	36
97	115677	5827.737459735111	41
97	115714	5830.844932845367	30
97	115733	5832.348969040596	14
97	115770	5835.654928687893	32
97	115809	5840	20
97	115915	5849.7	96
97	116010	5858.00244202418	82
97	116089	5865.10936025073	70
97	116158	5871.215374108072	60
97	116321	5885.921954857654	146
97	116383	5891.32485705758	53
97	116439	5897.6	36
97	116485	5901.7	40
97	116543	5906.708572737814	49
97	116589	5910.711488277273	39
97	116608	5912.212181860756	14
97	116654	5916.216363218019	39
97	116668	5917.423558899692	11
97	116714	5921.428246422479	39
97	116761	5925.529306304335	40
97	116818	5930.434329758392	48
97	116854	5933.642362698131	31
97	116999	5947.9	119
97	117085	5955.6	76
97	117125	5959.005422120408	33
97	117224	5967.915190861983	88
97	117288	5973.516998876914	55
97	117402	5983.722179025936	101
97	117417	5984.825959798875	10
97	117435	5986.234644256795	13
97	117482	5990.335955410827	40
97	117541	5995.63678035498	52
97	117605	6001.245520159081	55
97	117628	6003.149055912923	18
97	117786	6018.9	129
97	117905	6029.7	107
97	117945	6033.106194775991	33
97	118006	6038.40764012901	52
97	118123	6048.915678319641	104
97	118204	6056.016805783781	70
97	118279	6062.722501309654	66
97	118303	6064.722752008536	19
97	118402	6073.628345790556	88
97	118480	6080.436416192154	67
97	118546	6086.2384085446	57
97	118606	6091.644399584856	53
97	118685	6098.554060905341	68
97	118761	6105.358916551429	67
97	118975	6116.3	83
97	119024	6118.5	21
97	119128	6123.400486022352	48
97	119224	6127.803640345166	43
97	119278	6130.109425944323	22
97	119409	6137.016504263559	68
97	119427	6138.416531255766	13
97	119495	6144.417198070026	59
97	119535	6150.2	22
97	119549	6151.5	12
97	119568	6153.000042530661	14
97	119650	6160.209917138798	71
97	119673	6162.113839422815	18
97	119704	6164.815569902149	26
97	119849	6177.919920202242	130
97	119992	6185	50
97	120123	6191.1	60
97	120247	6196.709603053422	55
97	120280	6198.116138898599	13
97	120410	6204.12477167626	59
97	120458	6206.32663159594	21
97	120534	6210.534001714503	41
97	120579	6214.439939750858	38
97	120647	6220.445358569248	59
97	120681	6223.446675634154	29
97	120807	6236	100
97	120832	6238.2	21
97	120889	6243.306022265239	50
97	120951	6248.71171363719	53
97	121056	6255.2	32
97	121115	6257.9	26
97	121193	6261.503836093631	35
97	121293	6266.00420931874	44
97	121407	6271.305588408386	52
97	121523	6276.613045586711	52
97	121569	6279.823019918715	31
97	121651	6287.02473302717	71
97	121697	6291.032360694358	39
97	121894	6310.5	165
97	121968	6317.2	66
97	122011	6320.903597216804	36
97	122100	6328.807359639708	78
97	122177	6335.713735323805	68
97	122222	6339.620070908747	38
97	122305	6346.920568071123	72
97	122383	6353.925123232522	69
97	122437	6358.533113631566	45