version 2
run Join-32-20130520-16:32:16-32715
attr configname Join
attr datetime 20130520-16:32:16
attr experiment "\"Join\""
attr inifile omnetpp.ini
attr iterationvars $0=256
attr iterationvars2 "$0=256, $repetition=2"
attr measurement $0=256
attr network Network
attr processid 32715
attr repetition 2
attr replication #2
attr resultdir results
attr runnumber 32
attr seedset 32

vector 32  Network.dyn_peer[0]  lookupHopsSig:vector  ETV
32	935	20.112777577235	10
32	947	21.119034293288	9
32	961	22.119251132412	9
32	977	23.529104787202	13
32	1001	26.6	6
32	1018	28	13
32	1031	29.10657960491	10
32	1039	29.713644697523	5
32	1057	31.115888415003	13
32	1066	31.821554064467	6
32	1079	32.724424107226	8
32	1089	33.532288419415	7
32	1099	34.136765184234	5
32	1153	38.9	9
32	1157	39.2	2
32	1171	40.205691890486	9
32	1184	41.311186379168	10
32	1191	41.817091253517	4
32	1206	42.92274602226	10
32	1217	43.828956363089	8
32	1229	44.637074341389	7
32	1247	46.039143325545	13
32	1271	50.6	6
32	1276	51	3
32	1287	51.907138241166	8
32	1296	52.408646566129	4
32	1305	53.112702550437	6
32	1313	53.72096492419	5
32	1324	54.430812080607	6
32	1328	54.632979947859	1
32	1347	58.3	3
32	1362	59.7	13
32	1370	60.100598277668	3
32	1376	60.505346359267	3
32	1382	60.912195777451	3
32	1391	61.613706996941	6
32	1399	62.020055351755	3
32	1409	62.823194354113	7
32	1415	63.231679097718	3
32	1439	66.6	6
32	1453	67.9	12
32	1461	68.308675719674	3
32	1471	69.118101673547	7
32	1480	69.82537514954	6
32	1487	70.130431247119	2
32	1492	70.432596314096	2
32	1497	70.73601581112	2
32	1508	71.645620995091	8
32	1519	72.348172372676	6
32	1543	76.6	6
32	1553	77.5	8
32	1572	79.009111743404	14
32	1580	79.612485233917	5
32	1591	80.316540157936	6
32	1600	81.021352206604	6
32	1610	81.823929552252	7
32	1622	82.631425487257	7
32	1634	83.635471516596	9
32	1655	86.5	5
32	1666	87.5	9
32	1677	88.204301016996	6
32	1690	89.313971365005	10
32	1697	89.822932533695	4
32	1713	91.031031581644	11
32	1722	91.731151644316	6
32	1777	94.7	7
32	1800	95.7	9
32	1821	96.809258821541	10
32	1840	98.316580277392	14
32	1865	102.7	7
32	1874	103.5	7
32	1888	104.501326536538	9
32	1901	105.605917641163	10
32	1910	106.114452647577	4
32	1920	106.917279941403	7
32	1925	107.220237556449	2
32	1929	107.427783650946	1
32	1948	108.92827804589	14
32	1977	113.1	11
32	1994	114.5	13
32	2002	115.108798502094	5
32	2017	116.213029530476	10
32	2031	117.418655510327	11
32	2041	118.020981449003	5
32	2098	122.7	7
32	2108	123.107109561355	3
32	2115	123.608756971165	4
32	2127	124.414430795385	7
32	2132	124.721519619842	2
32	2140	125.325821875884	5
32	2171	129.3	13
32	2178	129.9	5
32	2190	130.70686060317	7
32	2195	131.011188850895	2
32	2205	131.818439162798	7
32	2214	132.322737468337	4
32	2231	133.831807959196	14
32	2247	135.034761063125	11
32	2263	136.240703388486	11
32	2274	137.146331548908	8
32	2287	138.052982380146	8
32	2320	143.5	15
32	2336	144.8	12
32	2349	145.906696160908	10
32	2358	146.41428543758	4
32	2370	147.419524358544	9
32	2382	148.219593001069	7
32	2394	149.220452010098	9
32	2406	150.024338076805	7
32	2425	151.732241890298	16
32	2429	151.941228228907	1
32	2454	154.7	7
32	2463	155.5	7
32	2478	156.602802850762	10
32	2484	157.010466305499	3
32	2495	157.92021504443	8
32	2510	159.028065286829	10
32	2525	160.136339892531	10
32	2533	160.744824020343	5
32	2539	161.153378686271	3
32	2592	164.6	6
32	2605	165.5	8
32	2619	166.505222071476	9
32	2626	167.008040362358	4
32	2632	167.412739247317	3
32	2639	167.914242091279	4
32	2651	168.724143507636	7
32	2670	172.4	4
32	2676	172.9	4
32	2691	174.006877956921	10
32	2697	174.408914484786	3
32	2706	175.111350156957	6
32	2716	175.912139261075	7
32	2729	176.820668584095	8
32	2739	177.624475570619	7
32	2752	178.530506046905	8
32	2757	178.840492772613	2
32	2778	182.4	4
32	2784	182.9	4
32	2791	183.400705653033	4
32	2802	184.01377295032	5
32	2810	184.613863741728	5
32	2833	186.522805986782	18
32	2855	190.4	4
32	2866	191.4	9
32	2876	192.001751676825	5
32	2888	193.007989647688	9
32	2897	193.715977158273	6
32	2908	194.423904207308	6
32	2913	194.728458184382	2
32	2920	195.238318311323	4
32	2952	199.4	14
32	2963	200.2	7
32	2975	201.206193089778	9
32	2983	201.806683595172	5
32	2998	202.915170577523	10
32	3018	206.2	2
32	3026	206.9	6
32	3036	207.708518988688	7
32	3049	208.609763187221	8
32	3055	209.012367582833	3
32	3074	210.521837785474	14
32	3089	211.822893370082	12
32	3101	212.630297479603	7
32	3111	213.439550110089	7
32	3139	217	10
32	3146	217.6	5
32	3155	218.103627473129	4
32	3167	219.105726802511	9
32	3180	220.010489839854	8
32	3191	220.915282408304	8
32	3199	221.517063048572	5
32	3214	222.62087715976	10
32	3227	223.727967910194	10
32	3239	224.53594212318	7
32	3250	225.440746991605	8
32	3264	226.448023275664	9
32	3325	230.8	8
32	3334	231.1	2
32	3340	231.500104522705	3
32	3349	232.006545591074	4
32	3361	233.015384445622	9
32	3368	233.517456000762	4
32	3374	233.919862605093	3
32	3388	234.929857835077	9
32	3393	235.234445422027	2
32	3420	238.9	9
32	3434	240	10
32	3447	241.103189240794	10
32	3466	242.604352265822	14
32	3472	243.006548155939	3
32	3486	244.015996862567	9
32	3497	244.919786234701	8
32	3512	246.022596577867	10
32	3521	246.724367786215	6
32	3526	247.026822692744	2
32	3550	250.8	8
32	3556	251.3	4
32	3568	252.109475927744	7
32	3576	252.712819544051	5
32	3587	253.621470044476	8
32	3601	254.627479763188	9
32	3631	257.237105464421	25
32	3652	258.942725593387	16
32	3660	259.543537990259	5
32	3687	262.9	9
32	3693	263.4	4
32	3703	264.000363147666	5
32	3715	265.008393235131	9
32	3720	265.31571652111	2
32	3732	266.12223049572	7
32	3750	267.732070745295	15
32	3759	268.234379069551	4
32	3782	272.5	5
32	3785	272.7	1
32	3793	273.302659311909	5
32	3809	274.511163434942	11
32	3813	274.713025361035	1
32	3820	275.21890052889	4
32	3832	276.025401331311	7
32	3839	276.527680309313	4
32	3868	281.1	11
32	3876	281.8	6
32	3889	282.709940808601	8
32	3899	283.511237972012	7
32	3911	284.312084399057	7
32	3927	285.713882439637	13
32	3941	286.714703787125	9
32	3959	288.115810017667	13
32	3987	293	10
32	4000	294	9
32	4011	294.900453638618	8
32	4020	295.602376651281	6
32	4033	296.509521551913	8
32	4040	297.016552280248	4
32	4046	297.425381150836	3
32	4061	298.534903595933	10
32	4068	299.038986307346	4
32	4076	299.642824822443	5
32	4095	301.144417201087	14
32	4122	304.9	9
32	4127	305.3	3
32	4133	305.709366855428	3
32	4146	306.614545219868	8
32	4160	307.816529589531	11
32	4173	308.717197488518	8
32	4182	309.422129652415	6
32	4195	310.328859611401	8
32	4204	311.032053128996	6
32	4213	311.734687606061	6
32	4222	312.243076286972	4
32	4233	313.148781575744	8
32	4238	313.449162807228	2
32	4251	314.354298354695	8
32	4259	314.963299918189	5
32	4284	318.8	8
32	4291	319.4	5
32	4298	319.900977760825	4
32	4306	320.308599789053	3
32	4318	321.317858441633	9
32	4330	322.119519435703	7
32	4337	322.623706561189	4
32	4369	327.4	14
32	4380	328.2	7
32	4392	329.207996529578	9
32	4401	329.914326742724	6
32	4413	330.720111759278	7
32	4418	331.023953497627	2
32	4432	332.028874046938	9
32	4465	337.5	15
32	4474	338.1	5
32	4480	338.500231370739	3
32	4485	338.803424426696	2
32	4491	339.208602574778	3
32	4508	340.51254209338	12
32	4513	340.819979099971	2
32	4520	341.327668466742	4
32	4533	342.230469228203	8
32	4557	346.6	6
32	4562	347	3
32	4567	347.307057402629	2
32	4572	347.608873467062	2
32	4587	348.716002677621	10
32	4592	349.02124854946	2
32	4609	350.323050973049	12
32	4616	350.83083340132	4
32	4621	351.135376245473	2
32	4628	351.644393572318	4
32	4643	352.750953952797	10
32	4656	353.853946214913	10
32	4676	355.456613403119	15
32	4708	359.4	14
32	4713	359.8	3
32	4732	361.30030959353	14
32	4744	362.105284050974	7
32	4752	362.705751089563	5
32	4761	363.406220053851	6
32	4768	363.914785928083	4
32	4783	365.015003744894	10
32	4807	368.6	6
32	4812	369	3
32	4822	369.807660231713	7
32	4829	370.110616382376	2
32	4840	371.01292226083	8
32	4847	371.515358744614	4
32	4865	372.917332735987	13
32	4876	373.825737820636	8
32	4890	374.835529588053	9
32	4895	375.140808801119	2
32	4918	378.5	5
32	4927	379.3	7
32	4939	380.108140410683	7
32	4958	381.815794352779	16
32	4967	382.322715617315	4
32	4978	383.226620476568	8
32	5006	387	10
32	5013	387.6	5
32	5030	388.906285037293	12
32	5047	390.212469903965	12
32	5062	391.515117082883	12
32	5067	391.817453456936	2
32	5077	392.421696820604	5
32	5089	393.423254386887	9
32	5102	394.323468338453	8
32	5123	398.3	3
32	5135	399.4	10
32	5141	399.808272592816	3
32	5158	401.115972841809	12
32	5165	401.616955429241	4
32	5177	402.422707324135	7
32	5186	403.12700909818	6
32	5199	404.029242341811	8
32	5212	405.132447602468	10
32	5241	409.3	13
32	5255	410.4	10
32	5264	411.109669887225	6
32	5277	412.013293736224	8
32	5287	412.82023742236	7
32	5304	414.124721041829	12
32	5311	414.63167170179	4
32	5321	415.43928484257	7
32	5327	415.848152064533	3
32	5352	418.7	7
32	5364	419.8	10
32	5383	421.308587556944	14
32	5395	422.111170295208	7
32	5411	423.51260390238	13
32	5424	424.416780181518	8
32	5434	425.224034831901	7
32	5448	426.224600914143	9
32	5470	430.4	4
32	5477	431	5
32	5483	431.409738212763	3
32	5496	432.319121387595	8
32	5505	433.027738148727	6
32	5511	433.428624717806	3
32	5530	434.931589027094	14
32	5541	435.839941034936	8
32	5566	438.7	7
32	5574	439.4	6
32	5578	439.602885999176	1
32	5596	441.010360395113	13
32	5605	441.711510733169	6
32	5618	442.618378378761	8
32	5629	443.525835517058	8
32	5664	447.7	17
32	5670	448	2
32	5680	448.807243355489	7
32	5700	450.414229677775	15
32	5716	451.81605799565	13
32	5729	452.723055738957	8
32	5736	453.228998581994	4
32	5742	453.635868088399	3
32	5757	454.740390003375	10
32	5763	455.148785664807	3
32	5771	455.750869974328	5
32	5818	458.4	4
32	5829	459	5
32	5840	459.904220951406	8
32	5853	460.804564909054	8
32	5859	461.205794932808	3
32	5865	461.613143827885	3
32	5874	462.122069923582	4
32	5894	466.2	2
32	5904	467.1	8
32	5910	467.507758222196	3
32	5922	468.314630803548	7
32	5932	469.12393953902	7
32	5938	469.529865943806	3
32	5952	470.533939880037	9
32	5957	470.836641578976	2
32	5961	471.038254929393	1
32	5972	471.947617277459	8
32	5994	474.4	4
32	6003	475.2	7
32	6021	476.608621737603	13
32	6034	477.71731980652	10
32	6052	479.121923487423	13
32	6065	480.027955891284	8
32	6079	481.231489242845	11
32	6113	485.9	19
32	6123	486.6	6
32	6133	487.406346698638	7
32	6145	488.211810246849	7
32	6157	489.21634455967	9
32	6166	489.916680819222	6
32	6177	490.617941773701	6
32	6184	491.118171080019	4
32	6190	491.526692555908	3
32	6195	491.833667283526	2
32	6204	492.339162610024	4
32	6214	493.142853284678	7
32	6223	493.848138825278	6
32	6288	497	10
32	6323	498.5	14
32	6334	499.405533668955	8
32	6340	499.805897395482	3
32	6358	501.20823970673	13
32	6364	501.61601862988	3
32	6378	502.62036772514	9
32	6402	506.6	6
32	6415	507.8	11
32	6425	508.407758668253	5
32	6434	509.111569281163	6
32	6448	510.116651198443	9
32	6460	511.124871418867	9
32	6473	512.034288914277	8
32	6481	512.635416901224	5
32	6505	516.8	8
32	6510	517.2	3
32	6529	518.707661138358	14
32	6537	519.316771757089	5
32	6551	520.318240779853	9
32	6578	524.9	9
32	6583	525.3	3
32	6599	526.503877229348	11
32	6611	527.508612234191	9
32	6626	528.612772123377	10
32	6636	529.420761624117	7
32	6641	529.726631241499	2
32	6655	530.72760966507	9
32	6672	532.03139269506	12
32	6697	536.7	7
32	6709	537.8	10
32	6723	538.709295648847	8
32	6732	539.413708192543	6
32	6742	540.013853485039	5
32	6755	541.122633727315	10
32	6771	542.331326343688	11
32	6777	542.738347101629	3
32	6784	543.244768309049	4
32	6804	544.846143391465	15
32	6831	548.9	9
32	6838	549.5	5
32	6848	550.104803403888	5
32	6852	550.308909742794	1
32	6873	554.3	3
32	6884	555.3	9
32	6896	556.107864145324	7
32	6911	557.417292818389	12
32	6924	558.321279187525	8
32	6936	559.323038181216	9
32	6949	560.22699512793	8
32	6959	561.036129906205	7
32	6975	562.242500252201	11
32	6986	563.144766492716	8
32	6994	563.750809478424	5
32	7022	567	10
32	7030	567.7	6
32	7045	568.804901238	10
32	7057	569.811980708329	9
32	7072	570.916332832357	10
32	7084	571.923797914659	9
32	7096	572.732941439997	7
32	7119	576.8	8
32	7125	577.3	4
32	7130	577.600823577512	2
32	7143	578.507096888157	8
32	7151	579.107316824043	5
32	7160	579.813790090995	6
32	7168	580.223012093019	3
32	7177	580.926554091989	6
32	7187	581.736057869104	7
32	7207	584.4	4
32	7210	584.6	1
32	7222	585.603660196894	9
32	7232	586.20886178078	5
32	7242	587.010596744845	7
32	7249	587.518556108426	4
32	7259	588.127872367024	5
32	7266	588.6309341145	4
32	7292	592.8	8
32	7298	593.3	4
32	7313	594.401906814253	10
32	7328	595.708255340998	12
32	7341	596.617700757338	8
32	7350	597.327099684814	6
32	7371	600.3	3
32	7380	601.1	7
32	7401	602.803926406623	16
32	7413	603.805312307015	9
32	7425	604.609187875309	7
32	7446	606.309298880228	16
32	7455	607.018453115755	6
32	7477	610.4	4
32	7490	611.6	11
32	7508	613.008407487203	13
32	7516	613.611948152084	5
32	7527	614.320910415919	6
32	7536	615.022236875036	6
32	7546	615.823677473523	7
32	7581	619.7	17
32	7592	620.5	7
32	7605	621.608205463942	10
32	7624	623.109985379581	14
32	7639	624.215544787335	10
32	7653	625.418940515144	11
32	7666	626.32329691042	8
32	7690	630.9	9
32	7707	632.3	13
32	7716	633.003636829	6
32	7725	633.710931380255	6
32	7735	634.317569087589	5
32	7765	639.2	12
32	7779	640.3	10
32	7787	640.902937200209	5
32	7803	642.10701437524	11
32	7809	642.513874521466	3
32	7850	646.6	6
32	7854	646.9	2
32	7861	647.406755291717	4
32	7871	648.012579487101	5
32	7880	648.718682663738	6
32	7903	652.5	5
32	7912	653.3	7
32	7926	654.309010808002	9
32	7937	655.215870679011	8
32	7949	656.016030127778	7
32	7954	656.320113706848	2
32	7964	657.120401603589	7
32	7981	660.2	2
32	7986	660.6	3
32	7994	661.20377246685	5
32	7999	661.505133217032	2
32	8011	662.312582905738	7
32	8020	663.018730475696	6
32	8029	663.719590862026	6
32	8040	664.423096236605	6
32	8045	664.727269924743	2
32	8059	665.927595950797	11
32	8075	667.130553499342	11
32	8089	668.13318086148	9
32	8096	668.639870839556	4
32	8117	672.3	3
32	8132	673.7	13
32	8140	674.103337418038	3
32	8150	674.911328523952	7
32	8159	675.612965728728	6
32	8173	676.613158904224	9
32	8196	680.5	5
32	8202	681	4
32	8213	681.908035906527	8
32	8223	682.510673612716	5
32	8228	682.815688158959	2
32	8233	683.123667324337	2
32	8239	683.529574570399	3
32	8249	684.132509737174	5
32	8260	685.040259161781	8
32	8282	686.843868600247	17
32	8313	691.3	13
32	8318	691.7	3
32	8331	692.601081854307	8
32	8341	693.406854206767	7
32	8358	694.709859136164	12
32	8395	699.9	19
32	8405	700.6	6
32	8419	701.804259605482	11
32	8427	702.20994463646	3
32	8440	703.317290600379	10
32	8454	704.325595615696	9
32	8467	705.431883316432	10
32	8483	706.634670905902	11
32	8492	707.343100147922	6
32	8507	708.450793595995	10
32	8529	712.6	6
32	8534	713	3
32	8542	713.60657901894	5
32	8551	714.107037840857	4
32	8557	714.512401649671	3
32	8567	715.313350160751	7
32	8575	715.918441531791	5
32	8582	716.225352519985	2
32	8605	720.5	5
32	8625	722.2	16
32	8635	723.003822472314	7
32	8639	723.213705469385	1
32	8653	724.21567718935	9
32	8661	724.82398914336	5
32	8687	728.8	8
32	8693	729.3	4
32	8700	729.806775656016	4
32	8710	730.410314759823	5
32	8718	731.018633455486	5
32	8723	731.326401322666	2
32	8739	732.534376467233	11
32	8745	732.942993693542	3
32	8770	736.7	7
32	8787	738.1	13
32	8797	738.904646338061	7
32	8801	739.110379369845	1
32	8827	742.8	8
32	8838	743.8	9
32	8845	744.100680716398	2
32	8849	744.30348084927	1
32	8860	745.208401247201	8
32	8873	746.116138354459	8
32	8879	746.521157852051	3
32	8883	746.72582397826	1
32	8909	751	10
32	8916	751.6	5
32	8926	752.203003536639	5
32	8934	752.807927830151	5
32	8945	753.709514490628	8
32	8956	754.417648989356	6
32	8963	754.921586094599	4
32	8972	755.622278358862	6
32	8984	756.427975524191	7
32	8995	757.329836152139	8
32	9024	761.1	11
32	9033	761.9	7
32	9045	762.707220400259	7
32	9058	763.811571626883	10
32	9071	764.716731748197	8
32	9084	765.817103263852	10
32	9097	766.723915646238	8
32	9124	771.2	12
32	9136	772.1	8
32	9145	772.800333654913	6
32	9150	773.109154249187	2
32	9160	773.918723822873	7
32	9173	774.822244232484	8
32	9185	775.822898720205	9
32	9206	778.6	6
32	9215	779.4	7
32	9222	779.906469615865	4
32	9235	780.809212920094	8
32	9247	781.812444878358	9
32	9255	782.214028326892	3
32	9266	783.118694820073	8
32	9280	784.127341988472	9
32	9291	785.030273861353	8
32	9301	785.831674196805	7
32	9311	786.435943816405	5
32	9322	787.337203310284	8
32	9352	791.2	12
32	9364	792.1	8
32	9380	793.502453300831	13
32	9395	794.611224798899	10
32	9400	794.91959892752	2
32	9411	795.822788931933	8
32	9429	797.224200321799	13
32	9438	797.930594351708	6
32	9450	798.739929154277	7
32	9461	799.649809468643	8
32	9469	800.052073312267	3
32	9475	800.458515136186	3
32	9480	800.76379934288	2
32	9512	805.5	15
32	9522	806.2	6
32	9529	806.702408629411	4
32	9534	807.007648659702	2
32	9544	807.814940780596	7
32	9552	808.224251224393	3
32	9566	809.42877195099	11
32	9580	810.43736641276	9
32	9585	810.747337983882	2
32	9608	814.5	5
32	9622	815.8	12
32	9633	816.509895003093	6
32	9645	817.513826928925	9
32	9659	818.521363036408	9
32	9669	819.329640245073	7
32	9684	820.432522860344	10
32	9689	820.735659066121	2
32	9721	825.4	14
32	9727	825.9	4
32	9745	827.302169584822	13
32	9756	828.002502342457	6
32	9765	828.703907053909	6
32	9772	829.211743837234	4
32	9778	829.613207585515	3
32	9790	830.417442260642	7
32	9799	831.118961738246	6
32	9812	832.025010707264	8
32	9816	832.22982540704	1
32	9843	836.9	9
32	9846	837.1	1
32	9856	837.902487051186	7
32	9868	838.707952770494	7
32	9872	838.909526690688	1
32	9879	839.41710855881	4
32	9901	841.222544433942	17
32	9913	842.022675419412	7
32	9921	842.629580424457	5
32	9928	843.139524753458	4
32	9933	843.352450755325	1
32	9946	844.169471009424	7
32	9969	848.5	5
32	9976	849.1	5
32	9983	849.604530041776	4
32	9997	850.609870053498	9
32	10007	851.412486722134	7
32	10013	851.813657944921	3
32	10023	852.42343388911	5
32	10029	852.825958491339	3
32	10039	853.628239815364	7
32	10071	857.4	14
32	10082	858.2	7
32	10088	858.605295736333	3
32	10095	859.108527686944	4
32	10101	859.516560606398	3
32	10112	860.225360866359	6
32	10123	861.132743433178	8
32	10138	862.233082952119	10
32	10146	862.841826024401	5
32	10165	864.34334202878	14
32	10187	868.4	4
32	10192	868.8	3
32	10198	869.207022110878	3
32	10213	870.313204794237	10
32	10219	870.714400556985	3
32	10223	870.919245267269	1
32	10228	871.227503795717	2
32	10243	872.330699576654	10
32	10273	877.2	12
32	10284	878	7
32	10293	878.708901368661	6
32	10307	879.91055760015	11
32	10323	881.118968594355	11
32	10331	881.726958273352	5
32	10347	882.927458251156	11
32	10357	883.733940926436	7
32	10369	884.540300072345	7
32	10383	885.7414915035	11
32	10392	886.249208787755	4
32	10407	887.556883689368	12
32	10430	890.5	5
32	10442	891.6	10
32	10455	892.507648273867	8
32	10470	893.812003871232	12
32	10477	894.117755686099	2
32	10489	895.1241556963	9
32	10504	896.224916827464	10
32	10513	896.925015707837	6
32	10532	900.1	1
32	10545	901.3	11
32	10562	902.602868112288	12
32	10582	904.205938422581	15
32	10591	904.90879672966	6
32	10597	905.310208960804	3
32	10625	909	10
32	10634	909.8	7
32	10645	910.504137369366	6
32	10649	910.706381481007	1
32	10661	911.706523285916	9
32	10670	912.214980559202	4
32	10674	912.424330666684	1
32	10682	913.029325290261	5
32	10688	913.429900052111	3
32	10698	914.032188355637	5
32	10719	918.3	3
32	10724	918.7	3
32	10728	918.90572222202	1
32	10732	919.110110394141	1
32	10753	920.816148363814	16
32	10764	921.724810939958	8
32	10772	922.13041422799	3
32	10783	923.035856112709	8
32	10793	923.844408586131	7
32	10814	926.3	3
32	10829	927.7	13
32	10843	928.701983732164	9
32	10856	929.8044747602	10
32	10871	930.904583113646	10
32	10897	934.8	8
32	10904	935.4	5
32	10914	936.001969760451	5
32	10925	936.904875448215	8
32	10931	937.310616310934	3
32	10936	937.615026705727	2
32	10948	938.417891465137	7
32	10958	939.219148298509	7
32	10967	939.919213690727	6
32	10990	942.5	5
32	10998	943.2	6
32	11012	944.20964546099	9
32	11023	945.114302591347	8
32	11029	945.522456701144	3
32	11034	945.823738708502	2
32	11047	946.732844054313	8
32	11073	950.8	8
32	11084	951.8	9
32	11093	952.30887733665	4
32	11097	952.51620170666	1
32	11101	952.720373653155	1
32	11106	953.021373243117	2
32	11113	953.52175422191	4
32	11132	956.4	4
32	11137	956.8	3
32	11149	957.805711204535	9
32	11166	959.106409353026	12
32	11174	959.708640109688	5
32	11190	960.918229594047	11
32	11218	965.1	11
32	11225	965.7	5
32	11236	966.600729046533	8
32	11245	967.308420276939	6
32	11251	967.708439235069	3
32	11257	968.114403793773	3
32	11266	968.817811619179	6
32	11276	969.626710129907	7
32	11286	970.427764347685	7
32	11290	970.632140851442	1
