file 24779 1369060478                                           
version 2
run Join-81-20130520-16:34:19-32715
attr configname Join
attr datetime 20130520-16:34:19
attr experiment "\"Join\""
attr inifile omnetpp.ini
attr iterationvars $0=8192
attr iterationvars2 "$0=8192, $repetition=1"
attr measurement $0=8192
attr network Network
attr processid 32715
attr repetition 1
attr replication #1
attr resultdir results
attr runnumber 81
attr seedset 81

vector 81  Network.dyn_peer[0]  lookupHopsSig:vector  ETV
81	444 24335 22250 70905 21.106845215423 3788.250153699006 897 1 222 33942 1774306
