version 2
run Join-51-20130520-16:32:27-32715
attr configname Join
attr datetime 20130520-16:32:27
attr experiment "\"Join\""
attr inifile omnetpp.ini
attr iterationvars $0=1024
attr iterationvars2 "$0=1024, $repetition=1"
attr measurement $0=1024
attr network Network
attr processid 32715
attr repetition 1
attr replication #1
attr resultdir results
attr runnumber 51
attr seedset 51

vector 51  Network.dyn_peer[0]  lookupHopsSig:vector  ETV
51	3062	20.2	32
51	3087	22.30882057266	20
51	3112	24.412303700218	20
51	3136	26.414928957844	19
51	3164	31	10
51	3196	33.9	28
51	3214	35.302458220594	13
51	3239	37.404504601775	20
51	3268	39.910781134656	24
51	3276	40.319024890519	3
51	3311	43.421869666101	30
51	3350	48.2	22
51	3366	49.7	14
51	3384	51.102125063713	13
51	3415	53.806677988709	26
51	3436	55.514769199085	16
51	3455	57.01741734509	14
51	3472	58.320311030653	12
51	3490	59.926817976392	15
51	3569	63.9	19
51	3590	65.4	14
51	3613	67.301595983416	18
51	3619	67.702420518579	3
51	3628	68.206321519239	4
51	3638	69.008685198994	7
51	3668	71.610524717853	25
51	3716	76.8	28
51	3720	77.1	2
51	3741	78.803184312919	16
51	3760	80.304050374852	14
51	3788	82.712480249429	23
51	3810	84.51963680659	17
51	3837	86.828869542468	22
51	3858	88.535609130901	16
51	3878	90.140001975926	15
51	3915	93.44892098918	32
51	3937	95.252496430919	17
51	3960	97.155099171335	18
51	3985	99.26030058145	20
51	4003	100.662732797688	13
51	4023	102.267410846025	15
51	4098	107.7	17
51	4135	109.3	15
51	4159	110.306488788609	9
51	4203	112.208657054138	18
51	4227	113.209321417573	9
51	4240	114.11557061359	8
51	4247	114.620818271352	4
51	4262	115.929777093724	12
51	4285	117.837336061588	18
51	4296	118.544733138755	6
51	4309	119.65395617326	10
51	4317	120.05437893476	3
51	4337	121.854555966813	17
51	4369	124.457225180688	25
51	4382	125.565580043914	10
51	4413	129.3	13
51	4425	130.2	8
51	4440	131.50165849847	12
51	4451	132.209515831351	6
51	4477	134.412317535885	21
51	4490	135.513940436573	10
51	4503	136.418292924031	8
51	4512	137.125640240954	6
51	4529	138.427205310696	12
51	4577	142.627306429614	41
51	4589	143.630395552351	9
51	4607	145.033488155801	13
51	4644	149.9	19
51	4662	151.4	14
51	4679	152.708912649198	12
51	4691	153.712273019476	9
51	4702	154.41227312431	6
51	4713	155.312738596452	8
51	4725	156.115308475931	7
51	4735	156.92134487073	7
51	4743	157.52998338402	5
51	4772	161.2	12
51	4789	162.6	13
51	4820	165.301977761643	26
51	4850	167.907122459811	25
51	4873	169.814036277515	18
51	4904	172.321960866554	24
51	4933	174.823943311919	24
51	4962	177.330500137861	24
51	4992	179.939965597117	25
51	5010	181.343916447645	13
51	5031	183.05346111147	16
51	5053	186.4	4
51	5062	187.2	7
51	5082	188.802354124216	15
51	5101	190.307186902511	14
51	5113	191.311355362605	9
51	5135	193.120102743029	17
51	5144	193.828032694912	6
51	5173	196.128312359018	22
51	5200	198.432731915364	22
51	5205	198.739997127166	2
51	5217	199.744139961181	9
51	5238	201.444963468923	16
51	5265	203.752149115276	22
51	5275	204.35478411039	5
51	5282	204.86443533596	4
51	5321	210	20
51	5353	212.9	28
51	5383	215.50498237254	25
51	5410	217.814815537523	22
51	5437	220.9	9
51	5444	221.5	5
51	5459	222.600842344206	10
51	5482	224.502700983629	18
51	5491	225.210073726199	6
51	5503	226.020011091016	7
51	5519	227.422221037945	13
51	5543	230.9	9
51	5550	231.5	5
51	5571	233.20016758762	16
51	5579	233.802223997844	5
51	5610	236.31141797846	24
51	5646	239.519979155625	31
51	5666	241.122446577463	15
51	5703	245.9	19
51	5720	247.3	13
51	5732	248.103192113412	7
51	5744	249.104589957047	9
51	5767	251.010717384886	18
51	5796	253.520067221297	24
51	5810	254.524442080678	9
51	5833	256.428897864939	18
51	5855	258.237781477397	17
51	5881	262.8	8
51	5896	264	11
51	5927	266.706903201793	26
51	5938	267.611342122184	8
51	5942	267.813924702423	1
51	5960	269.215747371142	13
51	5997	272.316554902045	30
51	6011	273.524720324411	11
51	6044	276.231547090968	26
51	6069	278.335640643583	20
51	6146	283.8	18
51	6167	284.6	7
51	6231	287.303822645444	26
51	6269	288.911379290063	15
51	6305	291.620798026924	26
51	6347	296.2	22
51	6368	298	17
51	6384	299.406556257915	13
51	6397	300.308010018747	8
51	6420	302.217570196313	18
51	6442	304.02639550663	17
51	6473	306.729587969071	26
51	6491	308.136117342634	13
51	6509	309.745778497788	15
51	6518	310.253193571746	4
51	6536	311.862188455221	15
51	6564	314.070095423358	21
51	6595	319.3	13
51	6607	320.2	8
51	6621	321.408511218016	11
51	6636	322.515738880806	10
51	6669	325.424646767705	28
51	6685	326.626943130899	11
51	6718	329.531621033545	28
51	6755	334	20
51	6765	334.9	8
51	6794	337.404483449691	24
51	6799	337.707105547288	2
51	6821	339.512719061556	17
51	6840	341.014339993763	14
51	6866	343.214729987633	21
51	6903	347.9	19
51	6945	351.6	36
51	6967	353.406665131999	17
51	6993	355.607167290891	21
51	7025	359.4	14
51	7050	361.6	21
51	7081	364.106180309606	24
51	7109	366.510266000732	23
51	7137	368.917163877935	23
51	7145	369.525617627709	5
51	7179	372.327634906606	27
51	7204	377	10
51	7220	378.3	12
51	7234	379.508637558112	11
51	7260	381.713227736125	21
51	7289	384.016992556044	22
51	7316	386.323612445409	22
51	7328	387.32897708147	9
51	7346	388.730425485832	13
51	7363	390.036136493362	12
51	7382	391.646886276299	15
51	7457	395.8	18
51	7512	398.1	22
51	7530	398.901620437677	7
51	7546	399.60471836391	6
51	7582	402.212162315788	25
51	7596	403.419090874682	11
51	7628	406.023926121343	25
51	7636	406.630520761669	5
51	7658	408.431642267726	17
51	7667	409.137676295678	6
51	7681	410.145435446591	9
51	7717	415.9	19
51	7745	418.2	22
51	7752	418.70155678966	4
51	7770	420.108108844777	13
51	7789	421.812297274799	16
51	7825	424.815022014668	29
51	7874	430.1	21
51	7880	430.6	4
51	7904	432.601102404869	19
51	7912	433.204143067027	5
51	7919	433.710728008811	4
51	7932	434.616301594095	8
51	7965	437.520498106226	28
51	8021	442.7	27
51	8059	446	32
51	8095	449.207639157176	31
51	8134	452.51463172988	32
51	8145	453.418585508758	8
51	8165	455.021585997341	15
51	8186	456.728566613125	16
51	8212	458.932484725103	21
51	8218	459.336009405322	3
51	8236	460.740260791472	13
51	8253	462.040934853656	12
51	8260	462.541317185531	4
51	8267	463.050972269342	4
51	8290	464.951447027061	18
51	8333	470.3	23
51	8354	472.1	17
51	8371	473.607259415227	14
51	8379	474.011913298933	3
51	8386	474.51411889039	4
51	8408	476.321958410388	17
51	8456	480.525472988043	41
51	8468	481.53051391814	9
51	8487	483.036619696361	14
51	8497	483.844759140082	7
51	8519	485.647912185315	17
51	8535	486.849827147938	11
51	8551	488.051245047675	11
51	8566	489.35498779181	12
51	8615	493.65580517171	42
51	8715	497.4	14
51	8726	497.9	4
51	8739	498.308575976463	3
51	8749	498.614792072079	2
51	8761	499.117549491454	4
51	8769	499.426810179642	2
51	8785	500.035983065541	5
51	8795	500.336043178056	2
51	8849	502.743254841462	23
51	8861	503.246261554018	4
51	8867	503.449155579849	1
51	8885	504.156057606213	6
51	8924	506.759742513135	25
51	8998	511.8	18
51	9035	513.3	14
51	9091	515.803215351311	24
51	9134	518.111993053673	22
51	9162	520.516820162563	23
51	9178	521.92146923912	13
51	9189	522.631312150566	6
51	9196	523.132098701607	4
51	9223	525.438131371833	22
51	9251	527.8460096917	23
51	9275	529.846659675405	19
51	9296	531.550557066166	16
51	9327	534.05400028958	24
51	9355	536.462339752745	23
51	9430	543.3	33
51	9445	544.5	11
51	9477	547.300738094763	27
51	9510	550.005909701604	26
51	9525	551.314029645381	12
51	9559	554.117804918225	27
51	9590	556.822302600137	26
51	9629	562.2	22
51	9653	564.3	20
51	9664	565.203392557897	8
51	9668	565.410260286344	1
51	9686	566.81841653172	13
51	9692	567.223183876409	3
51	9704	568.025182619418	7
51	9732	573.3	13
51	9764	576	26
51	9781	577.503946943224	14
51	9806	579.605474516403	20
51	9829	581.508849303157	18
51	9842	582.414854666965	8
51	9846	582.623160144416	1
51	9881	585.725553164015	30
51	9916	589.7	17
51	9923	590.1	3
51	9951	592.501561406017	23
51	9983	595.304029416949	27
51	9999	596.513624731993	11
51	10010	597.422690076047	8
51	10017	597.925352487339	4
51	10040	599.827375542042	18
51	10047	600.129759525451	2
51	10059	601.131816107026	9
51	10068	601.834213996669	6
51	10085	603.141126982189	12
51	10144	606.8	8
51	10179	608.1	12
51	10213	611.100359925583	29
51	10254	614.604747025181	34
51	10278	616.605035637003	19
51	10308	619.209692338947	25
51	10327	620.715330915925	14
51	10348	624.6	6
51	10376	627.1	24
51	10400	629.105848109642	19
51	10417	630.413741523878	12
51	10445	632.814018664747	23
51	10469	634.814693183876	19
51	10497	637.215815574783	23
51	10514	638.517049835033	12
51	10529	639.82493295279	12
51	10559	642.233638158493	23
51	10589	647.3	13
51	10593	647.6	2
51	10614	649.302570330819	16
51	10631	650.609249931394	12
51	10652	652.311215047409	16
51	10661	653.014334942303	6
51	10690	655.52139240874	24
51	10716	657.727397992336	21
51	10745	660.029155630657	22
51	10766	661.934443995646	18
51	10772	662.142142590708	1
51	10790	663.748079187378	15
51	10855	667.2	12
51	10937	670.8	35
51	10965	673.208232258369	23
51	10988	675.114626665966	18
51	11005	676.415694866467	12
51	11014	677.118594399932	6
51	11037	679.024364027762	18
51	11084	683.9	19
51	11097	684.9	9
51	11124	687.204384847567	22
51	11147	689.112483519536	18
51	11163	690.317665444993	11
51	11178	691.618220530253	12
51	11200	693.425766024944	17
51	11227	695.734383043007	22
51	11267	699.139442656753	33
51	11292	701.246979229236	20
51	11313	702.95634025522	16
51	11340	705.266203184902	22
51	11383	710.4	24
51	11394	711.4	9
51	11420	713.600937851155	21
51	11446	715.808198746726	21
51	11468	717.608670909231	17
51	11498	720.018068756238	23
51	11524	722.218203598114	21
51	11535	723.121726438898	8
51	11564	727.3	13
51	11586	729.2	18
51	11606	730.809318520133	15
51	11625	732.313479419345	14
51	11633	732.914618850787	5
51	11649	734.116331561774	11
51	11673	736.117813309226	19
51	11792	742.9	29
51	11805	743.4	4
51	11817	743.90519504094	4
51	11845	745.111240265175	11
51	11878	746.42002461389	12
51	11902	747.520548610867	10
51	11941	749.121135738587	15
51	12010	756.9	49
51	12042	759.8	28
51	12057	760.903142030858	10
51	12075	762.313045524027	13
51	12098	764.22244958558	18
51	12116	765.830110055772	15
51	12133	767.135971087131	12
51	12142	767.842261651034	6
51	12168	771	10
51	12181	772	9
51	12196	773.30303517302	12
51	12210	774.305109058105	9
51	12224	775.512022522616	11
51	12242	776.919936726957	13
51	12261	778.429789542152	14
51	12274	779.539024815134	10
51	12289	780.641202331144	10
51	12316	785.1	11
51	12332	786.4	12
51	12352	788.007437094589	15
51	12373	789.909715884972	18
51	12392	791.415862733029	14
51	12403	792.11761894638	6
51	12412	792.824895916765	6
51	12422	793.631143342642	7
51	12447	796.9	9
51	12453	797.4	4
51	12497	801.202741361155	37
51	12506	801.910671572363	6
51	12519	802.814984079414	8
51	12525	803.217075830121	3
51	12540	804.320794108373	10
51	12548	804.929450847877	5
51	12554	805.331586536416	3
51	12569	806.434483451028	10
51	12575	806.840948630477	3
51	12623	812.8	28
51	12649	815.1	22
51	12667	816.509751002383	13
51	12694	818.813398857735	22
51	12716	820.618193426161	17
51	12763	826.7	27
51	12779	828	12
51	12819	831.603899409312	35
51	12830	832.308116873101	6
51	12839	833.009801625007	6
51	12867	835.415934922549	23
51	12889	838.4	4
51	12904	839.8	13
51	12943	843.106465767284	32
51	12957	844.110081323452	9
51	12963	844.515577972868	3
51	12987	846.518296078449	19
51	12996	847.222631143635	6
51	13063	851.3	13
51	13157	856	46
51	13182	858.107363286912	20
51	13187	858.415920871642	2
51	13193	858.823449398124	3
51	13215	860.63315039936	17
51	13226	861.536930705695	8
51	13257	864.040221187462	24
51	13286	866.542902907148	24
51	13306	868.14613743146	15
51	13349	874.3	23
51	13384	877.5	31
51	13417	880.204867911618	26
51	13465	884.409349887433	41
51	13495	887.01604440736	25
51	13510	888.118267636714	10
51	13522	889.118701746864	9
51	13546	891.119634696503	19
51	13572	893.324387153146	21
51	13586	894.331560380855	9
51	13609	896.239385364822	18
51	13713	903	30
51	13722	903.4	3
51	13740	904.107366738102	6
51	13787	906.21027930234	20
51	13811	908.220144486645	19
51	13837	910.429959281495	21
51	13850	911.535759245537	10
51	13878	913.937425201488	23
51	13906	917	10
51	13914	917.7	6
51	13925	918.403914265141	6
51	13941	919.809933473311	13
51	13973	922.416621341201	25
51	13993	924.020912737737	15
51	14001	924.62290237955	5
51	14021	926.231116090132	15
51	14037	927.633932884157	13
51	14049	928.434594888103	7
51	14058	929.144009681248	6
51	14093	933.7	17
51	14112	935.3	15
51	14130	936.707238888442	13
51	14159	939.212465739296	24
51	14173	940.218432608436	9
51	14207	943.223464663369	29
51	14237	945.827877380438	25
51	14267	949.5	15
51	14297	952	24
51	14310	953.100273302027	10
51	14339	955.605559101378	24
51	14370	958.105646953474	24
51	14384	959.307349012722	11
51	14421	962.413525136606	30
51	14436	963.72157697704	12
51	14481	966.3	3
51	14492	966.8	4
51	14516	967.806140799932	9
51	14526	968.113061615689	2
51	14545	968.919132222751	7
51	14561	969.926055655515	9
51	14577	971.127178636361	11
51	14587	971.935908885561	7
51	14596	972.438158357178	4
51	14620	974.44396490669	19
51	14641	976.147501834003	16
51	14652	977.049776746971	8
51	14662	977.856231785861	7
51	14682	979.462546914764	15
51	14694	980.262584446844	7
51	14725	985.3	13
51	14758	988.1	27
51	14781	990.002951565687	18
51	14797	991.404323064807	13
51	14826	993.910714057289	24
51	14862	996.915509112277	29
51	14905	1002.3	23
51	14929	1004.4	20
51	14945	1005.803910781757	13
51	14967	1007.613657962693	17
51	14994	1009.922877841281	22
51	15004	1010.529810013003	5
51	15030	1012.735938049876	21
51	15049	1014.241447198304	14
51	15065	1015.641591565575	13
51	15088	1018.7	7
51	15107	1020.3	15
51	15146	1023.803943682045	34
51	15170	1025.809991019083	19
51	15183	1026.717095344803	8
51	15206	1028.617781645451	18
51	15230	1030.623055536318	19
51	15244	1031.824368519884	11
51	15275	1034.325046750263	24
51	15297	1036.125076885167	17
51	15327	1041.2	12
51	15332	1041.6	3
51	15346	1042.602095622974	9
51	15356	1043.402299004245	7
51	15368	1044.206458017692	7
51	15394	1046.414113517052	21
51	15403	1047.118875555223	6
51	15412	1047.82535079043	6
51	15433	1049.531924106177	16
51	15472	1052.837355675942	32
51	15477	1053.14167086238	2
51	15487	1053.945337831412	7
51	15501	1054.95251642306	9
51	15513	1055.955607297547	9
51	15520	1056.263177220847	2
51	15545	1060.8	8
51	15577	1063.7	28
51	15615	1066.900330713021	31
51	15639	1068.903433218216	19
51	15662	1070.805498681943	18
51	15706	1074.611264175818	37
51	15718	1075.612700249102	9
51	15728	1076.215033064096	5
51	15741	1077.320896738237	10
51	15754	1078.230215922794	8
51	15763	1078.935350429701	6
51	15774	1079.840156871221	8
51	15801	1082.9	9
51	15811	1083.8	8
51	15843	1086.405414804765	25
51	15869	1088.605804313854	21
51	15880	1089.5136095728	8
51	15891	1090.222959239745	6
51	15917	1092.428494948124	21
51	15961	1098.4	24
51	15982	1100.2	17
51	16011	1102.703024199227	24
51	16042	1105.403337823915	26
51	16057	1106.504244780734	10
51	16071	1107.704348428482	11
51	16095	1109.705483049715	19
51	16119	1111.708909280641	19
51	16164	1116.5	25
51	16177	1117.7	11
51	16197	1119.303215176949	15
51	16221	1121.309160989864	19
51	16228	1121.81722629129	4
51	16240	1122.622964255526	7
51	16246	1123.026064867747	3
51	16256	1123.830586782856	7
51	16277	1125.531900165408	16
51	16286	1126.034499790844	4
51	16305	1130.1	1
51	16323	1131.8	16
51	16345	1133.601497960938	17
51	16386	1137.101736046331	34
51	16406	1138.711492855359	15
51	16414	1139.313883685782	5
51	16468	1143.3	13
51	16480	1144.2	8
51	16498	1145.801938695856	15
51	16506	1146.21109510509	3
51	16544	1149.616059557769	33
51	16569	1151.725375654424	20
51	16594	1153.831954456049	20
51	16619	1155.941740816052	20
51	16642	1157.842471375714	18
51	16667	1159.947581421902	20
51	16694	1162.050222267414	20
51	16743	1166.5	5
51	16754	1167	4
51	16792	1168.601196641209	15
51	16822	1169.911163493035	12
51	16867	1171.819841861763	18
51	16890	1173.026922811289	11
51	16905	1174.132184038931	10
51	16918	1175.235355047376	10
51	16927	1175.939134344742	6
51	16949	1177.740963390652	17
51	16971	1179.546101129318	17
51	16984	1180.446456026281	8
51	17004	1182.054045835362	15
51	17023	1183.754944074606	16
51	17062	1188	20
51	17074	1189.1	10
51	17088	1190.108876128885	9
51	17102	1191.314822406588	11
51	17120	1192.716285311699	13
51	17161	1196.220546720594	34
51	17179	1197.828724383809	15
51	17216	1201.9	19
51	17222	1202.2	2
51	17239	1203.707033762796	14
51	17279	1207.11398721255	33
51	17323	1210.916529968128	37
51	17341	1212.319541127833	13
51	17357	1213.728025014628	13
51	17390	1217.5	15
51	17420	1220	24
51	17449	1222.504691643971	24
51	17463	1223.7085643408	11
51	17485	1225.511904908029	17
51	17512	1227.812662340436	22
51	17529	1229.118556293715	12
51	17542	1230.027698786799	8
51	17573	1232.729827744264	26
51	17585	1233.731999983572	9
51	17616	1236.241640674193	24
51	17635	1237.951364665865	16
51	17665	1240.358914196342	23
51	17702	1243.667503343934	32
51	17732	1247.2	12
51	17748	1248.5	12
51	17778	1251.10103258813	25
51	17794	1252.306556840478	11
51	17815	1254.013331602836	16
51	17828	1255.116126148131	10
51	17844	1256.316412615739	11
51	17869	1258.421193961517	20
51	17897	1260.82384052446	23
51	17931	1265.6	16
51	17947	1266.9	12
51	17955	1267.506844106395	5
51	17976	1269.215904900607	16
51	17984	1269.816535639521	5
51	18007	1271.722807332591	18
51	18018	1272.426507121286	6
51	18039	1274.135202155409	16
51	18048	1274.835637999968	6
51	18056	1275.44545171278	5
51	18070	1276.455024388047	9
51	18087	1277.95679124936	14
51	18105	1279.365046181438	13
51	18131	1281.56743771527	21
51	18174	1286.3	23
51	18203	1288.9	25
51	18231	1291.303248869534	23
51	18257	1293.508281103218	21
51	18283	1295.713095830198	21
51	18309	1297.913146145649	21
51	18341	1300.517783412197	25
51	18367	1302.725148221623	21
51	18373	1303.133174548783	3
51	18403	1305.740719654586	25
51	18435	1309.6	16
51	18442	1310	3
51	18456	1311.203937263169	11
51	18496	1314.608592992792	33
51	18503	1315.117725311616	4
51	18521	1316.524517615098	13
51	18525	1316.725233984245	1
51	18531	1317.130116789236	3
51	18536	1317.436469249753	2
51	18549	1318.341533303013	8
51	18622	1323.7	17
51	18665	1325.6	18
51	18713	1327.703573971064	20
51	18761	1329.80729142357	20
51	18779	1330.515740356367	6
51	18819	1332.925345449346	23
51	18849	1335.532725742366	25
51	18887	1340.1	21
51	18896	1340.9	7
51	18913	1342.201231261447	12
51	18939	1344.405661943193	21
51	18953	1345.614457370621	11
51	18970	1346.914968466771	12
51	19008	1350.117944325141	31
51	19059	1357.1	31
51	19084	1359.3	21
51	19118	1362.102682857406	27
51	19134	1363.505075062547	13
51	19165	1367.3	13
51	19171	1367.8	4
51	19192	1369.509462966835	16
51	19210	1370.911057161972	13
51	19226	1372.114480502781	11
51	19241	1373.423741366843	12
51	19274	1376.130070881192	26
51	19304	1381.5	15
51	19324	1383.2	16
51	19352	1385.609884010716	23
51	19366	1386.614503256736	9
51	19386	1388.219060008234	15
51	19394	1388.820091119852	5
51	19402	1389.421613622134	5
51	19434	1392.022529628319	25
51	19449	1393.331018095242	12
51	19476	1396.9	9
51	19486	1397.8	8
51	19502	1399.009907371259	11
51	19520	1400.410814690749	13
51	19536	1401.812186145552	13
51	19543	1402.113711184856	2
51	19578	1405.214661098859	30
51	19584	1405.623685117169	3
51	19606	1407.43145070408	17
51	19618	1408.237482014337	7
51	19650	1413.4	14
51	19673	1415.4	19
51	19694	1417.100660965817	16
51	19702	1417.708226086347	5
51	19723	1419.417446562315	16
51	19746	1421.320005386325	18
51	19775	1423.82607867361	24
51	19812	1427.9	19
51	19822	1428.6	6
51	19837	1429.906844367901	12
51	19861	1431.90925407285	19
51	19879	1433.314235129434	13
51	19906	1435.618581422637	22
51	19946	1439.026291961048	33
51	19975	1443.1	11
51	19987	1444	8
51	19995	1444.600410410307	5
51	20019	1446.607690184571	19
51	20033	1447.812922045251	11
51	20046	1448.720633336368	8
51	20075	1451.229992173735	24
51	20098	1454.5	5
51	20109	1455.5	9
51	20126	1456.809538116573	12
51	20156	1459.412054390317	25
51	20177	1461.119822981775	16
51	20186	1461.82051309349	6
51	20208	1463.62952232629	17
51	20244	1467.8	18
51	20265	1469.6	17
51	20297	1472.206647096928	25
51	20327	1474.815415967288	25
51	20350	1476.718745921591	18
51	20370	1478.32756715966	15
51	20395	1480.431589686701	20
51	20412	1481.938530426181	14
51	20432	1483.544658501259	15
51	20449	1484.852811138691	12
51	20523	1493.2	52
51	20537	1494.3	10
51	20559	1496.108246374388	17
51	20584	1498.212454131978	20
51	20607	1500.12186882722	18
51	20635	1502.523744703736	23
51	20649	1503.73010856888	11
51	20656	1504.033483943124	2
51	20671	1505.33378846018	12
51	20690	1506.835405045346	14
51	20733	1512.3	23
51	20748	1513.7	13
51	20773	1515.800158276555	20
51	20791	1517.200705056213	13
51	20813	1519.003011509279	17
51	20835	1520.804673339772	17
51	20862	1523.105445408726	22
51	20894	1527.7	17
51	20903	1528.3	5
51	20913	1529.107201189452	7
51	20921	1529.712379448034	5
51	20937	1530.914893479535	11
51	20957	1532.516109477359	15
51	20986	1537.1	11
51	20994	1537.8	6
51	21011	1539.10809958514	12
51	21024	1540.017790644775	8
51	21043	1541.726177306429	16
51	21056	1542.634788038807	8
51	21066	1543.442015761124	7
51	21105	1548.2	22
51	21118	1549.4	11
51	21135	1550.701216756424	12
51	21153	1552.102885988328	13
51	21164	1553.007376477095	8
51	21183	1554.512254632248	14
51	21199	1555.917706301635	13
51	21224	1559	10
51	21229	1559.4	3
51	21235	1559.805965432436	3
51	21253	1561.207595746621	13
51	21262	1561.917513355986	6
51	21279	1563.218824253243	12
51	21294	1564.324141019678	10
51	21312	1568.3	3
51	21318	1568.8	4
51	21338	1570.403919364695	15
51	21352	1571.613816917453	11
51	21363	1572.316608752192	6
51	21369	1572.725613736657	3
51	21377	1573.329267024933	5
51	21384	1573.835725094875	4
51	21399	1574.941899469284	10
51	21408	1575.644255037241	6
51	21429	1577.351167741625	16
51	21450	1579.054608299124	16
51	21479	1583.1	11
51	21501	1585	18
51	21524	1586.90641230937	18
51	21543	1588.409555675332	14
51	21556	1589.510684435752	10
51	21601	1594.5	25
51	21624	1596.5	19
51	21640	1597.907024516633	13
51	21663	1599.808415046168	18
51	21673	1600.412872903211	5
51	21697	1602.42144131611	19
51	21722	1604.527440319442	20
51	21735	1605.630685785081	10
51	21758	1607.540532264882	18
51	21779	1609.245839966619	16
51	21808	1611.750842022178	24
51	21887	1615.8	18
51	21904	1616.5	6
51	21942	1618.003519237379	14
51	21998	1620.506831716298	24
51	22026	1621.713086802376	11
51	22035	1622.215495942065	4
51	22053	1623.819227389146	15
51	22069	1625.022752382045	11
51	22126	1628.8	8
51	22174	1631.3	24
51	22211	1634.405427504493	30
51	22227	1635.813576269807	13
51	22237	1636.42002879838	5
51	22248	1637.326062572929	8
51	22265	1638.628599550749	12
51	22273	1639.230282865571	5
51	22296	1641.135231964273	18
51	22327	1645.3	13
51	22341	1646.4	10
51	22370	1648.903979296416	24
51	22393	1650.80581617603	18
51	22409	1652.014140735398	11
51	22430	1653.921858964894	18
51	22460	1656.328188844345	23
51	22492	1659.13427722777	27
51	22518	1661.343322730071	21
51	22547	1663.846054126822	24
51	22572	1665.951794840294	20
51	22579	1666.252464657771	2
51	22603	1668.25349935811	19
51	22622	1669.959328625402	16
51	22655	1673.5	15
51	22675	1675.2	16
51	22699	1677.204869649345	19
51	22706	1677.713363977502	4
51	22718	1678.522728441598	7
51	22743	1680.629138262041	20
51	22753	1681.429957711333	7
51	22779	1683.634522766626	21
51	22794	1684.742107669915	10
51	22821	1689.1	11
51	22827	1689.6	4
51	22835	1690.007740811698	3
51	22844	1690.716472820436	6
51	22864	1692.317359566238	15
51	22869	1692.618245988915	2
51	22882	1693.722625548132	10
51	22915	1697.8	18
51	22947	1700.5	26
51	22970	1702.40199960519	18
51	22982	1703.403091520656	9
51	23009	1705.708571582495	22
51	23035	1707.911083586123	21
51	23067	1710.517771910778	25
51	23090	1712.419413862293	18
51	23107	1716.2	2
51	23129	1718.3	20
51	23147	1719.902646849458	15
51	23177	1722.712281210739	27
51	23209	1725.721760678472	29
51	23224	1727.02979740806	12
51	23242	1728.634275968937	15
51	23249	1729.140765951914	4
51	23258	1729.84175487231	6
51	23278	1731.644188894152	17
51	23285	1732.153265902995	4
51	23316	1735.057701575617	28
51	23324	1735.665568243743	5
51	23336	1736.669803255328	9
51	23348	1737.679290436773	9
51	23364	1739.08605767177	13
51	23388	1741.292854007916	21
