version 2
run Join-21-20130520-16:32:13-32715
attr configname Join
attr datetime 20130520-16:32:13
attr experiment "\"Join\""
attr inifile omnetpp.ini
attr iterationvars $0=128
attr iterationvars2 "$0=128, $repetition=1"
attr measurement $0=128
attr network Network
attr processid 32715
attr repetition 1
attr replication #1
attr resultdir results
attr runnumber 21
attr seedset 21

vector 21  Network.dyn_peer[0]  lookupHopsSig:vector  ETV
21	613	21.639671009931	16
21	648	25.7	17
21	655	26.1	3
21	660	26.406411381226	2
21	664	26.610004721944	1
21	668	26.815198197738	1
21	672	27.016221303009	1
21	678	27.424718927781	3
21	700	30.4	4
21	705	30.8	3
21	712	31.301281483883	4
21	723	32.011175302608	6
21	730	32.518212652971	4
21	737	33.019423495951	4
21	744	33.520057459062	4
21	749	33.828998145913	2
21	759	34.429028455158	5
21	784	38.7	7
21	794	39.6	8
21	806	40.402963080131	7
21	815	41.109974984605	6
21	825	41.913443747774	7
21	839	42.922044249844	9
21	848	43.622063139894	6
21	853	43.93007960831	2
21	866	44.837371772457	8
21	891	48.7	7
21	896	49.1	3
21	903	49.605405698067	4
21	912	50.10975344784	4
21	923	51.012690514003	8
21	928	51.317840383472	2
21	935	51.821532534968	4
21	945	52.422428013008	5
21	957	53.425130652921	9
21	967	54.028486249685	5
21	973	54.429419383637	3
21	980	54.931335423786	4
21	999	58.3	3
21	1002	58.5	1
21	1013	59.400036254278	8
21	1020	59.903763338073	4
21	1028	60.306159632265	3
21	1039	61.214717040814	8
21	1044	61.517414214243	2
21	1066	64.4	4
21	1076	65.3	8
21	1080	65.502500784203	1
21	1086	65.907157649771	3
21	1092	66.114580124652	1
21	1105	67.217208976119	10
21	1128	70.5	5
21	1137	71.3	7
21	1151	72.300707794337	9
21	1163	73.310640722608	9
21	1175	74.114555897153	7
21	1193	75.714824957031	15
21	1206	76.621084526286	8
21	1215	77.326331020754	6
21	1227	78.132106742483	7
21	1237	78.932542433006	7
21	1247	79.649874311518	6
21	1272	82.7	7
21	1279	83.3	5
21	1295	84.505678847434	11
21	1305	85.308748385053	7
21	1329	88.6	6
21	1337	89.3	6
21	1343	89.706893384961	3
21	1354	90.416000224234	6
21	1361	90.92017842707	4
21	1385	94.6	6
21	1391	95.1	4
21	1398	95.600318033979	4
21	1406	96.004490228893	3
21	1412	96.41325166386	3
21	1422	97.222403454896	7
21	1430	97.822825455392	5
21	1448	99.223085777923	13
21	1474	102.8	8
21	1480	103.3	4
21	1495	104.408946427879	10
21	1503	105.01337898628	5
21	1509	105.420895414584	3
21	1517	105.935321438373	4
21	1525	106.339533751096	3
21	1532	106.846942408151	4
21	1537	107.149065365517	2
21	1545	107.758116135013	5
21	1603	110.6	6
21	1614	111.1	4
21	1625	111.500418053811	3
21	1630	111.80520076579	2
21	1652	114.4	4
21	1658	114.9	4
21	1666	115.500809010732	5
21	1671	115.805125733401	2
21	1681	116.41192350579	5
21	1686	116.720293687123	2
21	1698	117.725104486909	9
21	1706	118.134892663219	3
21	1713	118.640007060346	4
21	1719	119.046694752335	3
21	1724	119.352139470531	2
21	1747	122.5	5
21	1753	123	4
21	1760	123.504514123771	4
21	1770	124.111550398801	5
21	1778	124.712426888036	5
21	1782	124.916573817926	1
21	1797	126.018402759912	10
21	1808	126.920468031153	8
21	1817	127.625848288111	6
21	1830	128.530323091394	8
21	1837	129.037107023741	4
21	1844	129.5379393053	4
21	1848	129.740653930377	1
21	1871	132.5	5
21	1881	133.4	8
21	1895	134.409998448374	9
21	1905	135.217533864743	7
21	1912	135.722847691395	4
21	1924	136.528551344145	7
21	1936	137.529976912955	9
21	1951	138.637039308475	10
21	1960	139.342875739372	6
21	1973	140.246185416615	8
21	1996	144.5	5
21	2000	144.8	2
21	2006	145.207378098526	3
21	2012	145.60783140998	3
21	2020	146.008342125088	3
21	2026	146.408708514611	3
21	2030	146.614420407652	1
21	2054	150.6	6
21	2059	151	3
21	2066	151.504253738333	4
21	2076	152.107725991859	5
21	2086	152.916346921905	7
21	2093	153.423108498126	4
21	2099	153.826040534407	3
21	2106	154.131068285372	2
21	2114	154.734114432482	5
21	2118	154.935646141339	1
21	2140	158.5	5
21	2149	159.3	7
21	2160	160.005071836828	6
21	2170	160.814837530175	7
21	2180	161.622793598879	7
21	2190	162.230412575358	5
21	2196	162.63377278611	3
21	2202	163.041015900924	3
21	2227	166.7	7
21	2234	167.3	5
21	2240	167.703496472707	3
21	2256	168.905080524559	11
21	2261	169.209619512815	2
21	2282	172.3	3
21	2287	172.7	3
21	2295	173.309746297951	5
21	2303	173.914663054437	5
21	2311	174.322753232863	3
21	2317	174.730921211898	3
21	2327	175.532181531957	7
21	2333	175.935816956232	3
21	2340	176.244527481316	2
21	2350	177.046956906091	7
21	2357	177.551276445296	4
21	2374	178.85659099462	12
21	2399	182.7	7
21	2407	183.4	6
21	2414	183.908039196091	4
21	2430	185.110663947366	11
21	2438	185.716622052014	5
21	2447	186.217307180462	4
21	2474	190.9	9
21	2483	191.7	7
21	2493	192.300445582328	5
21	2501	192.906478989195	5
21	2509	193.512187701078	5
21	2526	194.819847755616	12
21	2532	195.226694610286	3
21	2545	196.131838828434	8
21	2566	200.3	3
21	2573	200.9	5
21	2582	201.60135520827	6
21	2593	202.308857970882	6
21	2603	203.111785332187	7
21	2610	203.61809964392	4
21	2620	204.218867197021	5
21	2628	204.819082574213	5
21	2636	205.419860820842	5
21	2641	205.723152569869	2
21	2661	208.2	2
21	2670	209	7
21	2681	209.907586389346	8
21	2693	210.709122375844	7
21	2705	211.714502010401	9
21	2731	214.8	8
21	2741	215.7	8
21	2751	216.304825399832	5
21	2761	217.106695308475	7
21	2771	217.907004453993	7
21	2777	218.111389276999	1
21	2786	218.814450001245	6
21	2794	219.422562100194	5
21	2805	220.132180013571	6
21	2816	221.040510483114	8
21	2825	221.749852898674	6
21	2835	222.353905326976	5
21	2841	222.758112058374	3
21	2866	226.9	9
21	2872	227.4	4
21	2882	228.003486321496	5
21	2887	228.312950022041	2
21	2900	229.413574051644	10
21	2910	230.017251847613	5
21	2933	234.5	5
21	2939	235	4
21	2947	235.608230593448	5
21	2955	236.017204352739	3
21	2963	236.621615252486	5
21	2969	236.922897792843	2
21	2976	237.427149974108	4
21	2998	240.4	4
21	3003	240.8	3
21	3012	241.505277540108	6
21	3018	241.906189159843	3
21	3028	242.516069179264	5
21	3035	243.016079591909	4
21	3041	243.422876540865	3
21	3062	246.6	6
21	3072	247.403293731	7
21	3083	248.105597380561	6
21	3088	248.412629303723	2
21	3095	248.914668781531	4
21	3101	249.319216618034	3
21	3117	250.520407617459	11
21	3141	254.6	6
21	3149	255.3	6
21	3156	255.802267826818	4
21	3169	256.704661566693	8
21	3192	260.5	5
21	3201	261.3	7
21	3209	261.905725248865	5
21	3221	262.708929458271	7
21	3229	263.318718668333	5
21	3236	263.823253478283	4
21	3249	264.73191328164	8
21	3257	265.341138062198	5
21	3264	265.849900676876	4
21	3271	266.153374402467	2
21	3295	270.6	6
21	3302	271.2	5
21	3309	271.706279946642	4
21	3322	272.610349288752	8
21	3330	273.219985733173	5
21	3344	274.222845349054	9
21	3353	274.927248069786	6
21	3375	278.7	7
21	3382	279.3	5
21	3388	279.706397167404	3
21	3395	280.009706831138	2
21	3405	280.819053851558	7
21	3414	281.520471816634	6
21	3440	284.8	8
21	3447	285.4	5
21	3452	285.709194807331	2
21	3459	286.01813387046	2
21	3468	286.722018346061	6
21	3477	287.428989133877	6
21	3482	287.736448429322	2
21	3486	287.941861291278	1
21	3496	288.547568923676	5
21	3518	292.5	5
21	3530	293.6	10
21	3534	293.807545060417	1
21	3542	294.21194875833	3
21	3546	294.412295415886	1
21	3555	295.112451479498	6
21	3561	295.521258530067	3
21	3567	295.92329235983	3
21	3574	296.227088268293	2
21	3581	296.736068855923	4
21	3585	296.939065531246	1
21	3591	297.344350530393	3
21	3611	300.2	2
21	3618	300.8	5
21	3624	301.20918071524	3
21	3629	301.513505291156	2
21	3634	301.818792404478	2
21	3641	302.120868013369	2
21	3645	302.329721529614	1
21	3654	303.029955042654	6
21	3680	306.8	8
21	3686	307.3	4
21	3694	307.902574148424	5
21	3702	308.309154096405	3
21	3708	308.71187751038	3
21	3717	309.421305594115	6
21	3723	309.831235959463	3
21	3746	312.5	5
21	3751	312.9	3
21	3762	313.805506536713	8
21	3772	314.412879234528	5
21	3795	316.315518109927	18
21	3817	320.4	4
21	3821	320.7	2
21	3832	321.607374661578	8
21	3843	322.308456817473	6
21	3865	326.4	4
21	3870	326.8	3
21	3882	327.807496125905	9
21	3891	328.310938397373	4
21	3898	328.815003632746	4
21	3905	329.32475942025	4
21	3911	329.725451995854	3
21	3921	330.327065761049	5
21	3929	330.928941388236	5
21	3936	331.432399580894	4
21	3961	334.8	8
21	3968	335.4	5
21	3980	336.208870862822	7
21	3985	336.511060052604	2
21	3994	337.220785459497	6
21	4017	340.5	5
21	4026	341.3	7
21	4033	341.802252058789	4
21	4042	342.304283156645	4
21	4052	343.109177706342	7
21	4073	346.3	3
21	4080	346.9	5
21	4085	347.207749363605	2
21	4090	347.512534364626	2
21	4096	347.917265588395	3
21	4117	350.3	3
21	4121	350.6	2
21	4131	351.406127720072	7
21	4141	352.008768038712	5
21	4149	352.618512995847	5
21	4158	353.327360169427	6
21	4163	353.635450788666	2
21	4183	356.2	2
21	4188	356.6	3
21	4193	356.905620370537	2
21	4201	357.506168979985	5
21	4215	358.512164455406	9
21	4236	362.3	3
21	4245	363.1	7
21	4255	363.900617819442	7
21	4268	364.802026958483	8
21	4278	365.60585978298	7
21	4283	365.906909919262	2
21	4291	366.314547039565	3
21	4302	367.221321089038	8
21	4317	368.3306494199	10
21	4342	372.9	9
21	4352	373.8	8
21	4366	374.807878735987	9
21	4377	375.714547652659	8
21	4390	376.621099430863	8
21	4400	377.424313833888	7
21	4411	378.126566989929	6
21	4421	378.936279695948	7
21	4426	379.244964557046	2
21	4439	380.154864074679	8
21	4445	380.563880474623	3
21	4465	384.2	2
21	4471	384.7	4
21	4478	385.20839809993	4
21	4485	385.710771262133	4
21	4497	386.512864008175	7
21	4506	387.217708977401	6
21	4528	390.4	4
21	4536	391.1	6
21	4540	391.301892086765	1
21	4546	391.704799711533	3
21	4557	392.406564868931	6
21	4565	393.014682103509	5
21	4591	396.8	8
21	4596	397.2	3
21	4612	398.40103532046	11
21	4622	399.204690125725	7
21	4629	399.708219965636	4
21	4654	402.7	7
21	4663	403.5	7
21	4675	404.306747982904	7
21	4680	404.610063971331	2
21	4685	404.910966438365	2
21	4693	405.518052815166	5
21	4704	406.218610195915	6
21	4710	406.52839057226	2
21	4735	410.7	7
21	4740	411.1	3
21	4747	411.601049450384	4
21	4759	412.403454909964	7
21	4765	412.810709436071	3
21	4769	413.018652800217	1
21	4783	414.024080575204	9
21	4790	414.534028700164	4
21	4798	415.13772727844	5
21	4803	415.446908518068	2
21	4810	415.946925289329	4
21	4819	416.447805880211	4
21	4824	416.751576841935	2
21	4833	417.45819442034	6
21	4853	420.2	2
21	4857	420.5	2
21	4866	421.204314887716	6
21	4879	422.10923997077	8
21	4894	423.417438895186	12
21	4920	426.8	8
21	4924	427.1	2
21	4931	427.606314974818	4
21	4944	428.508880238288	8
21	4954	429.312510551444	7
21	4978	432.6	6
21	4986	433.3	6
21	4992	433.703998382564	3
21	5001	434.213626516696	4
21	5012	435.115313857753	8
21	5019	435.619617536166	4
21	5027	436.023626232859	3
21	5033	436.427790742697	3
21	5040	436.931920531386	4
21	5047	437.436256143414	4
21	5072	440.7	7
21	5075	440.9	1
21	5083	441.504838889567	5
21	5094	442.205814027413	6
21	5121	446.9	9
21	5126	447.3	3
21	5134	447.909471667176	5
21	5145	448.611346707732	6
21	5154	449.313517236815	6
21	5165	450.020845770289	6
21	5173	450.621764853054	5
21	5181	451.224289926348	5
21	5189	451.831713640505	5
21	5201	452.635234918875	7
21	5209	453.244496468432	5
21	5221	454.054232678353	7
21	5243	458.5	5
21	5254	459.5	9
21	5264	460.100288240509	5
21	5271	460.602626192744	4
21	5278	461.107278283468	4
21	5285	461.612548537979	4
21	5290	461.922380820278	2
21	5318	465	10
21	5326	465.7	6
21	5340	466.700477182148	9
21	5348	467.301927343804	5
21	5354	467.710285142743	3
21	5378	470.6	6
21	5386	471.3	6
21	5399	472.202282034179	8
21	5408	472.910478235729	6
21	5417	473.614523939789	6
21	5427	474.216289299664	5
21	5435	474.820041300668	5
21	5451	476.025918580607	11
21	5457	476.435340543989	3
21	5464	476.942795733095	4
21	5484	480.2	2
21	5493	481	7
21	5500	481.504138355669	4
21	5513	482.407337222522	8
21	5524	483.310783846016	8
21	5531	483.818687272161	4
21	5540	484.224082838583	3
21	5547	484.724998774172	4
21	5568	488.3	3
21	5578	489.2	8
21	5586	489.802750618737	5
21	5594	490.205258324674	3
21	5605	491.10913765312	8
21	5621	492.314450309214	11
21	5625	492.523218150607	1
21	5634	493.225122394913	6
21	5659	496.7	7
21	5665	497.109410867041	3
21	5670	497.414167712828	2
21	5677	497.918320841136	4
21	5692	499.020559933135	10
21	5698	499.42551553814	3
21	5722	502.6	6
21	5729	503.2	5
21	5736	503.706492968783	4
21	5745	504.212408040884	4
21	5754	504.912799295963	6
21	5761	505.417723533933	4
21	5772	506.125897118007	6
21	5776	506.328676315092	1
21	5801	510.7	7
21	5811	511.6	8
21	5819	512.001736698076	3
21	5828	512.707975245206	6
21	5835	513.212119222769	4
21	5842	513.720440118414	4
21	5864	515.522175229865	17
21	5880	516.725849891421	11
21	5902	520.4	4
21	5912	521.3	8
21	5919	521.804947218364	4
21	5925	522.007698632476	1
21	5931	522.416987526067	3
21	5950	526.1	1
21	5959	526.9	7
21	5969	527.705595317392	7
21	5980	528.413756115855	6
21	5985	528.718809460435	2
21	5991	529.127220485208	3
21	5998	529.627760717684	4
21	6010	530.433718731742	7
21	6037	534.9	9
21	6040	535.1	1
21	6046	535.500544115433	3
21	6056	536.106156114747	5
21	6063	536.608992561301	4
21	6070	537.115346323348	4
21	6077	537.62084912685	4
21	6085	538.030040240348	3
21	6096	538.935333898272	8
21	6116	540.53635045271	15
21	6137	544.3	3
21	6145	545	6
21	6153	545.609876664194	5
21	6164	546.318951738832	6
21	6170	546.725500714039	3
21	6182	547.732148404603	9
21	6191	548.238444579441	4
21	6214	552.5	5
21	6220	553	4
21	6227	553.50778073847	4
21	6237	554.117630211724	5
21	6241	554.321662216367	1
21	6255	555.523646851935	11
21	6265	556.127295537924	5
21	6286	560.3	3
21	6297	561.202540567216	8
21	6305	561.804932649476	5
21	6313	562.212013290874	3
21	6336	566.5	5
21	6347	567.5	9
21	6356	568.005657497418	4
21	6362	568.406517955555	3
21	6369	568.915127662628	4
21	6376	569.423014158658	4
21	6390	570.430267153478	9
21	6417	574.9	9
21	6420	575.1	1
21	6426	575.509285503397	3
21	6435	576.016707490083	4
21	6440	576.320606306072	2
21	6447	576.82699646472	4
21	6453	577.228468447758	3
21	6476	580.5	5
21	6482	581	4
21	6487	581.303008182235	2
21	6494	581.811611681349	4
21	6501	582.116078455826	2
21	6521	586.2	2
21	6526	586.6	3
21	6535	587.302529129113	6
21	6542	587.807738748189	4
21	6553	588.514325036216	6
21	6560	589.022345351898	4
21	6567	589.531843928452	4
21	6592	592.7	7
21	6599	593.3	5
21	6604	593.60112062542	2
21	6612	594.0108564188	3
21	6616	594.21743047634	1
21	6638	598.4	4
21	6645	599	5
21	6663	600.404397540406	13
21	6670	600.905252690125	4
21	6676	601.311356920793	3
21	6703	604.9	9
21	6708	605.3	3
21	6713	605.604109731202	2
21	6725	606.408822932797	7
21	6731	606.815143013665	3
21	6751	608.415788847288	15
21	6762	609.317926205192	8
21	6774	610.127762169852	7
21	6784	610.929122726169	7
21	6790	611.335447439247	3
21	6797	611.837042637011	4
21	6807	612.445452873907	5
21	6828	616.3	3
21	6835	616.9	5
21	6841	617.306474260927	3
21	6848	617.815402519627	4
21	6863	618.923226724598	10
21	6881	622	0
21	6885	622.3	2
21	6895	623.102364843012	7
21	6901	623.509232120112	3
21	6907	623.909344402361	3
21	6930	626.5	5
21	6936	627	4
21	6944	627.604041061594	5
21	6957	628.513777218646	8
21	6965	629.118268971774	5
21	6990	632.7	7
21	6994	633	2
21	7000	633.400119850852	3
21	7005	633.702524268662	2
21	7015	634.31010892501	5
21	7022	634.813073431925	4
21	7029	635.320869624692	4
21	7041	636.126537058339	7
21	7060	640.1	1
21	7068	640.8	6
21	7080	641.803062642212	9
21	7094	642.805678782784	9
21	7102	643.413102846054	5
21	7108	643.820713114316	3
21	7157	646.7	7
21	7161	647	2
21	7166	647.304839393291	2
21	7170	647.508755404527	1
21	7179	648.010314826913	4
21	7184	648.312257719567	2
21	7189	648.613438126084	2
21	7207	652.3	3
21	7210	652.5	1
21	7215	652.80532372459	2
21	7225	653.609429211895	7
21	7235	654.214876259275	5
21	7244	654.917703273955	6
21	7250	655.323484734727	3
21	7257	655.832707030923	4
21	7268	656.538557633576	6
21	7274	656.941108926506	3
21	7279	657.243358610439	2
21	7299	660.2	2
21	7307	660.9	6
21	7315	661.504914576895	5
21	7320	661.814659653314	2
21	7336	663.016664972099	11
21	7346	663.82362546681	7
21	7355	664.32649097969	4
21	7363	664.929582252776	5
21	7371	665.533182607294	5
21	7376	665.835205876953	2
21	7385	666.340354394237	4
21	7391	666.740479762262	3
21	7413	670.4	4
21	7420	671	5
21	7436	672.208150047427	11
21	7447	673.113640803256	8
21	7456	673.822176962894	6
21	7467	674.531696439616	6
21	7475	675.138291471945	5
21	7495	678.2	2
21	7501	678.7	4
21	7510	679.405935946363	6
21	7521	680.114477187469	6
21	7538	681.614885356497	14
21	7561	684.5	5
21	7572	685.5	9
21	7581	686.008926734321	4
21	7592	686.917880170121	8
21	7599	687.421337142974	4
21	7624	690.7	7
21	7632	691.4	6
21	7641	691.913573165741	4
21	7647	692.115208324594	1
21	7652	692.42088058863	2
21	7657	692.729376846199	2
21	7662	692.94741848008	1
21	7685	696.5	5
21	7693	697.2	6
21	7702	697.903105157299	6
21	7709	698.205987823365	2
21	7724	699.513106788906	12
21	7737	700.419297064369	8
21	7745	701.029287998467	5
21	7755	701.832831511141	7
21	7765	702.436242520503	5
21	7775	703.245772054888	7
21	7779	703.44646908233	1
21	7808	707.1	11
21	7812	707.4	2
21	7817	707.704086492345	2
21	7824	708.010269199993	2
21	7830	708.416336015247	3
21	7834	708.625798985828	1
21	7839	708.9334332874	2
21	7843	709.135635612844	1
21	7849	709.53777268923	3
21	7855	709.938125604443	3
21	7862	710.243153557012	2
21	7867	710.546686929839	2
21	7872	710.856673354599	2
21	7876	711.060538746541	1
21	7881	711.370117992412	2
21	7889	711.971303630266	5
21	7914	714.7	7
21	7922	715.4	6
21	7927	715.706830200881	2
21	7935	716.11642816496	3
21	7942	716.622115454449	4
21	7963	720.3	3
21	7972	721.1	7
21	7989	722.400754078903	12
21	7997	723.009515692171	5
21	8006	723.712830300886	6
21	8019	724.614775582953	8
21	8031	725.620136167281	9
21	8040	726.125631481904	4
21	8064	730.6	6
21	8068	730.9	2
21	8074	731.301954943279	3
21	8088	732.309026810119	9
21	8111	736.5	5
21	8117	737	4
21	8123	737.404241536071	3
21	8133	738.010427423727	5
21	8141	738.612681892788	5
21	8150	739.32097118259	6
21	8156	739.73078470022	3
21	8168	740.538148202305	7
21	8177	741.244940867014	6
21	8185	741.849289873365	5
21	8194	742.358575207355	4
21	8201	742.864615052306	4
21	8220	746.1	1
21	8231	747.1	9
21	8239	747.70833171948	5
21	8246	748.009412403326	2
21	8252	748.411821470847	3
21	8257	748.718570019579	2
21	8262	749.01932491321	2
21	8270	749.629042094208	5
21	8281	750.330113786508	6
21	8285	750.538028369394	1
21	8290	750.843697491427	2
21	8312	754.5	5
21	8320	755.2	6
21	8327	755.704129820214	4
21	8336	756.408422063083	6
21	8348	757.323860371029	8
