version 2
run Join-53-20130520-16:32:29-32715
attr configname Join
attr datetime 20130520-16:32:29
attr experiment "\"Join\""
attr inifile omnetpp.ini
attr iterationvars $0=1024
attr iterationvars2 "$0=1024, $repetition=3"
attr measurement $0=1024
attr network Network
attr processid 32715
attr repetition 3
attr replication #3
attr resultdir results
attr runnumber 53
attr seedset 53

vector 53  Network.dyn_peer[0]  lookupHopsSig:vector  ETV
53	3088	22.6	26
53	3108	24.3	16
53	3125	25.808471721513	14
53	3150	27.91313086426	20
53	3168	29.322290840201	13
53	3182	30.326159665683	9
53	3193	31.233113782546	8
53	3216	33.141681270506	18
53	3230	34.148503821852	9
53	3255	36.254287844788	20
53	3300	42.6	26
53	3319	44.2	15
53	3350	46.909140381752	26
53	3362	47.916336141488	9
53	3396	50.722858284801	27
53	3423	53.029593488493	22
53	3448	55.136933515819	20
53	3455	55.63981840518	4
53	3479	58.8	8
53	3499	60.5	16
53	3512	61.608597885407	10
53	3524	62.414709155249	7
53	3547	64.318188706987	18
53	3559	65.318317409319	9
53	3585	67.521050290614	21
53	3606	69.22225593134	16
53	3613	69.726384704519	4
53	3628	70.827258481682	10
53	3650	72.636765872685	17
53	3691	76.143404635344	34
53	3778	82.3	23
53	3791	83.5	11
53	3817	85.705058285545	21
53	3821	85.90557650401	1
53	3849	88.114092574231	21
53	3867	89.722229417604	15
53	3923	95.6	36
53	3932	96.2	5
53	3940	96.800967710718	5
53	3958	98.207968416934	13
53	3974	99.612720042984	13
53	3989	100.716379757688	10
53	4021	103.516799337513	27
53	4026	103.825182590599	2
53	4157	110.2	42
53	4196	111.9	16
53	4228	113.300880193621	13
53	4256	114.801991877096	14
53	4269	115.902663794652	10
53	4297	118.108544689683	21
53	4314	119.610925113547	14
53	4337	121.515871511576	18
53	4365	123.921414719034	23
53	4420	129.5	35
53	4429	130.1	5
53	4458	132.60126786451	24
53	4483	134.706374671262	20
53	4525	138.313665458614	35
53	4574	144.9	29
53	4588	146	10
53	4618	148.607730075623	25
53	4642	150.612104698784	19
53	4661	152.117792383659	14
53	4674	153.219623520591	10
53	4695	154.928084166897	16
53	4728	159.5	15
53	4733	159.9	3
53	4743	160.501955357908	5
53	4759	161.906015813373	13
53	4779	163.513292896406	15
53	4791	164.318547922953	7
53	4814	166.225161640542	18
53	4839	168.329236763776	20
53	4872	171.236628178828	28
53	4880	171.843770343176	5
53	4890	172.445473757385	5
53	4897	172.951504982454	4
53	4908	173.854999836618	8
53	4927	175.35734734639	14
53	4940	176.267300875984	8
53	5004	181.2	12
53	5051	183.3	20
53	5079	184.502147865295	11
53	5109	185.703556567807	11
53	5139	186.90408140415	11
53	5165	188.111513997862	11
53	5175	188.919612913737	7
53	5186	189.828557225952	8
53	5202	191.032840238494	11
53	5217	192.140667690849	10
53	5236	193.846140758406	16
53	5246	194.452496220473	5
53	5328	199.5	15
53	5359	202.1	25
53	5371	203.108373556833	9
53	5381	203.915978480428	7
53	5390	204.422142589725	4
53	5403	205.526426812121	10
53	5503	211.9	39
53	5521	213.4	14
53	5540	214.904847125227	14
53	5551	215.813723994179	8
53	5570	217.318131556382	14
53	5578	217.921136142254	5
53	5592	218.92179315599	9
53	5604	219.928711035056	9
53	5617	220.831947974727	8
53	5633	222.035930181314	11
53	5658	224.141061668219	20
53	5682	226.150788522944	19
53	5705	228.053177523886	18
53	5730	230.159824488126	20
53	5753	232.06921297037	18
53	5767	233.270401167932	11
53	5780	234.173281334519	8
53	5791	235.082165914216	8
53	5827	239.9	19
53	5846	241.5	15
53	5855	242.001778937396	4
53	5887	244.809785295631	27
53	5892	245.11662572692	2
53	5908	246.316640977592	11
53	5921	247.416826693155	10
53	5941	250.5	5
53	5959	252	14
53	5972	253.102547305158	10
53	5989	254.403397209582	12
53	5999	255.209420551499	7
53	6013	256.210761373268	9
53	6028	257.519369635618	12
53	6070	262.5	25
53	6083	263.7	11
53	6106	265.609662373617	18
53	6118	266.41888944941	7
53	6140	268.227757348645	17
53	6152	269.231448764708	9
53	6169	270.540485599646	12
53	6203	275.9	19
53	6212	276.5	5
53	6236	278.501766622487	19
53	6262	280.708444137022	21
53	6291	283.2139179912	24
53	6300	283.92339512797	6
53	6322	285.730017323018	17
53	6353	289.3	13
53	6371	290.8	14
53	6383	291.805223436963	9
53	6395	292.613176161946	7
53	6407	293.618029704556	9
53	6420	294.522237313442	8
53	6434	295.724549665321	11
53	6464	298.128957370012	23
53	6480	299.534652996002	13
53	6504	302.6	6
53	6511	303.2	5
53	6523	304.008180920265	7
53	6543	305.817203998504	17
53	6554	306.525621155855	6
53	6574	308.128473150041	15
53	6588	309.330495657189	11
53	6637	315.2	32
53	6663	317.5	22
53	6689	319.708349780414	21
53	6709	321.318337035287	15
53	6715	321.719505185054	3
53	6751	324.720590507264	29
53	6776	326.830410717019	20
53	6782	327.23067429331	3
53	6869	331.9	19
53	6896	334.1	21
53	6922	336.300626619691	21
53	6950	338.709768920456	23
53	6972	340.519569856833	17
53	6999	342.82354363933	22
53	7024	344.928909595776	20
53	7075	351.4	34
53	7088	352.4	9
53	7103	353.704926333006	12
53	7123	355.31136728276	15
53	7129	355.715098808647	3
53	7151	357.520177635328	17
53	7173	359.321869350432	17
53	7195	361.131538061047	17
53	7227	363.940156380952	27
53	7290	368.2	22
53	7318	370.7	24
53	7330	371.706117599641	9
53	7342	372.514505778399	7
53	7356	373.720800219142	11
53	7378	375.522947656189	17
53	7391	376.429409253273	8
53	7421	381.5	15
53	7438	382.9	13
53	7465	385.205969897927	22
53	7485	386.811829774802	15
53	7504	388.316554994979	14
53	7514	389.120500972436	7
53	7536	390.927743037161	17
53	7555	392.433391487197	14
53	7562	392.939499564386	4
53	7572	393.74909757078	7
53	7589	395.050581407668	12
53	7642	401.3	33
53	7668	403.6	22
53	7693	405.709946023942	20
53	7705	406.511402792256	7
53	7729	408.513752160133	19
53	7755	410.718817708669	21
53	7782	413.025952209345	22
53	7810	415.431530361565	23
53	7837	417.738099458725	22
53	7867	420.145755146054	23
53	7893	422.354210917408	21
53	7915	424.161581157446	17
53	7943	429	10
53	7966	431	19
53	7991	433.10670406837	20
53	8020	435.608372797136	24
53	8032	436.40915128636	7
53	8040	437.015950027858	5
53	8059	438.51904201318	14
53	8068	439.22467827453	6
53	8076	439.824992711196	5
53	8093	441.134366322698	12
53	8124	445.5	15
53	8142	447	14
53	8162	448.606294061711	15
53	8188	450.813850204951	21
53	8254	458.4	44
53	8278	460.5	20
53	8291	461.606280034026	10
53	8295	461.812644391052	1
53	8316	463.52247811464	16
53	8340	465.528663651653	19
53	8360	467.135688223231	15
53	8386	469.335765258744	21
53	8401	470.44466725619	10
53	8457	477.8	38
53	8464	478.2	3
53	8469	478.5001950089	2
53	8489	480.103416229758	15
53	8498	480.813278676021	6
53	8507	481.520012884473	6
53	8521	482.528346879612	9
53	8550	487.1	11
53	8587	490.3	31
53	8596	491.009714688484	6
53	8610	492.012562947329	9
53	8625	493.322316960482	12
53	8632	493.831967292497	4
53	8648	495.032347207645	11
53	8663	496.134807135439	10
53	8699	501.8	18
53	8719	503.5	16
53	8734	504.602481387592	10
53	8763	507.110654443475	24
53	8779	508.315755429384	11
53	8809	513.2	12
53	8832	515.2	19
53	8870	518.408795572004	31
53	8893	520.313513696067	18
53	8906	521.421804712995	10
53	8921	522.527225608591	10
53	8943	524.333743021395	17
53	9046	530.8	28
53	9076	532.1	12
53	9092	533.505882489006	13
53	9107	534.612441106806	10
53	9125	536.012854238901	13
53	9145	537.822698832851	17
53	9163	539.231551841027	13
53	9176	540.137851265699	8
53	9199	542.044401180029	18
53	9220	543.952265086988	18
53	9235	545.05442729638	10
53	9249	546.055965987446	9
53	9266	547.56471636837	14
53	9281	548.671030791065	10
53	9302	550.378326964278	16
53	9324	554.5	5
53	9346	556.4	18
53	9363	557.905836112585	14
53	9387	559.911781435689	19
53	9411	561.916808724837	19
53	9422	562.617580752717	6
53	9435	563.724329140497	10
53	9470	566.630104796072	28
53	9498	569.038812992589	23
53	9540	574.4	24
53	9561	576.2	17
53	9577	577.609264858029	13
53	9585	578.009964510534	3
53	9611	580.212985522189	21
53	9641	585.2	12
53	9656	586.4	11
53	9668	587.400113437687	9
53	9680	588.203482093595	7
53	9707	590.506126427387	22
53	9722	591.814050524001	12
53	9747	594.7	7
53	9771	596.8	20
53	9800	599.301911040251	24
53	9824	601.311675522457	19
53	9847	603.217282776417	18
53	9867	604.826524046211	15
53	9883	606.031375946871	11
53	9912	608.536300772675	24
53	9941	611.042087856495	24
53	9964	612.948244727874	18
53	9993	615.455808247538	24
53	10015	617.265262273036	17
53	10042	619.570686554459	22
53	10069	623	10
53	10083	624.1	10
53	10095	625.103308117198	9
53	10109	626.112994356506	9
53	10117	626.717200942385	5
53	10124	627.224786518368	4
53	10138	628.232286153683	9
53	10145	628.732842375061	4
53	10156	629.638142673769	8
53	10167	630.346016244967	6
53	10180	631.448696629392	10
53	10196	632.560771283987	10
53	10225	637.2	12
53	10240	638.4	11
53	10252	639.400381144857	9
53	10269	640.709657354589	12
53	10283	641.915981732075	11
53	10296	642.822823301021	8
53	10315	644.328723058307	14
53	10326	645.231622599603	8
53	10346	646.836396484661	15
53	10366	648.444671569938	15
53	10394	653	10
53	10398	653.3	2
53	10418	654.905447263366	15
53	10428	655.705569455502	7
53	10447	657.214326058348	14
53	10459	658.017337538859	7
53	10476	659.521769152964	14
53	10500	662.6	6
53	10522	664.5	18
53	10544	666.308096555762	17
53	10551	666.811530963324	4
53	10573	668.614533567777	17
53	10588	669.914918138574	12
53	10601	670.815164179448	8
53	10620	674.4	4
53	10627	675	5
53	10643	676.20546482268	11
53	10676	679.108683494115	28
53	10705	681.614473382159	24
53	10723	683.020199136078	13
53	10740	684.32740661988	12
53	10765	686.434310835327	20
53	10781	687.838623517611	13
53	10798	689.147710383025	12
53	10821	691.048514828114	18
53	10854	693.952337474208	28
53	10889	696.853749288555	28
53	10922	699.75389940583	28
53	10957	702.662464680393	28
53	10990	705.571249209119	28
53	11000	706.180153312413	5
53	11069	714.7	47
53	11085	716	12
53	11093	716.602149704212	5
53	11108	717.905833303799	12
53	11137	720.214563177676	22
53	11151	721.419796076937	11
53	11168	722.726788319501	12
53	11189	724.432460511769	16
53	11201	725.44120204494	9
53	11234	729.5	15
53	11252	731	14
53	11276	733.008761844886	19
53	11284	733.614468933112	5
53	11296	734.421668302881	7
53	11325	736.927783158357	24
53	11330	737.232900825662	2
53	11343	738.141864937604	8
53	11353	738.947714809998	7
53	11363	739.752913756406	7
53	11456	744.5	25
53	11515	747.2	26
53	11544	749.701890374252	24
53	11580	752.704602257457	29
53	11598	754.112695938045	13
53	11609	755.018529519626	8
53	11619	755.818927128087	7
53	11643	758.6	6
53	11661	760.1	14
53	11674	761.200012702597	10
53	11689	762.304081414481	10
53	11713	764.308084237796	19
53	11741	766.712798162129	23
53	11746	767.014000350097	2
53	11772	769.223549132158	21
53	11779	769.728961378775	4
53	11809	772.129847268479	23
53	11833	774.138328889005	19
53	11840	774.639921731927	4
53	11853	775.74115161351	10
53	11871	777.1431268994	13
53	11878	777.64414932281	4
53	11942	784.3	43
53	11950	785	6
53	11958	785.609131588204	5
53	11971	786.513099030667	8
53	11979	787.114988990943	5
53	12001	788.921023393573	17
53	12013	789.928585651676	9
53	12034	791.633823407558	16
53	12058	793.637264714464	19
53	12069	794.340711203414	6
53	12080	795.247047037238	8
53	12086	795.648932893637	3
53	12139	801.3	33
53	12153	802.4	10
53	12173	804.008881891404	15
53	12201	806.411074840577	23
53	12249	812.8	28
53	12277	815.3	24
53	12301	817.303437494114	19
53	12326	819.405972595328	20
53	12355	821.907375621804	24
53	12382	824.012509060605	20
53	12409	826.317502788422	22
53	12437	831	10
53	12460	833	19
53	12482	834.713483160293	16
53	12505	836.615982129486	18
53	12527	838.419554239591	17
53	12549	840.223603122346	17
53	12571	842.031642784345	17
53	12591	843.839949029252	17
53	12614	845.749927461888	18
53	12630	846.953041359628	11
53	12655	849.058945877763	20
53	12680	851.168616522274	20
53	12702	852.977867862608	17
53	12726	854.983150300088	19
53	12746	856.591064936856	15
53	12767	858.293257980874	16
53	12901	866.6	46
53	12909	867.3	6
53	12933	869.30540575453	19
53	12952	870.808953501206	14
53	12985	873.712155266053	28
53	12996	874.41628430451	6
53	13013	875.925428783744	14
53	13032	877.433258204741	14
53	13044	878.242742906582	7
53	13058	879.451648058813	11
53	13069	880.155216265549	6
53	13084	881.463481191238	12
53	13113	883.972617319263	24
53	13131	885.376752343126	13
53	13155	888.6	6
53	13166	889.6	9
53	13189	891.508039431707	18
53	13210	893.212203214813	16
53	13223	894.114055468758	8
53	13246	896.018350770039	18
53	13267	897.923195180735	18
53	13290	899.826175877089	18
53	13315	901.928902349227	20
53	13344	904.237344369014	22
53	13366	906.045857916536	17
53	13379	907.154843205484	10
53	13416	911.9	19
53	13430	913	10
53	13444	914.00922775076	9
53	13450	914.411543654615	3
53	13471	916.116243405863	16
53	13486	917.421316641829	12
53	13498	918.227589643717	7
53	13540	924.5	25
53	13566	926.8	22
53	13590	928.800081306819	19
53	13603	929.903404791096	10
53	13613	930.511462520767	5
53	13637	932.521417711894	19
53	13672	935.629033478612	30
53	13701	939.1	11
53	13722	940.9	17
53	13747	943.004018953745	20
53	13753	943.406342572769	3
53	13776	945.31042288767	18
53	13793	946.615217746447	12
53	13822	949.117295869928	24
53	13843	950.818947705921	16
53	13853	951.625958753643	7
53	13879	954.8	8
53	13886	955.4	5
53	13915	957.902271543066	24
53	13925	958.510880623008	5
53	13950	960.612943931096	20
53	13986	965.8	18
53	13998	966.7	8
53	14019	968.40933934296	16
53	14050	971.117851714936	26
53	14081	973.82656836748	26
53	14103	975.631595526462	17
53	14115	976.43384448882	7
53	14136	978.134587309156	16
53	14173	983.9	19
53	14189	985.2	12
53	14208	986.705654749127	14
53	14226	988.113906892623	13
53	14236	988.920352873998	7
53	14268	991.722098450099	27
53	14414	996.6	26
53	14440	997.3	6
53	14491	998.800304053514	14
53	14524	999.904348312115	10
53	14542	1000.607596550147	6
53	14568	1001.711934954606	10
53	14586	1002.316771351993	5
53	14664	1008.6	26
53	14672	1009.3	6
53	14684	1010.107402807255	7
53	14709	1012.213365504815	20
53	14738	1014.715558556289	24
53	14796	1019.2	12
53	14843	1023.4	41
53	14862	1024.90278272445	14
53	14880	1026.31053457236	13
53	14931	1033.1	31
53	14960	1035.7	25
53	14972	1036.501213683823	7
53	15002	1039.109992171001	25
53	15026	1041.119951544873	19
53	15050	1043.121081507237	19
53	15072	1044.927409511705	17
53	15110	1048.134491636511	31
53	15117	1048.636537559514	4
53	15143	1052.8	8
53	15170	1055.2	23
53	15187	1056.500719379414	12
53	15216	1059.01051257236	24
53	15236	1060.61255527264	15
53	15256	1062.222179102215	15
53	15260	1062.423673214911	1
53	15272	1063.431573025317	9
53	15318	1067.435338946688	39
53	15365	1072.7	27
53	15385	1074.4	16
53	15410	1076.500797118179	20
53	15418	1077.106008537232	5
53	15427	1077.811885598972	6
53	15448	1079.520816804761	16
53	15471	1081.424573176616	18
53	15501	1085.5	15
53	15520	1087.1	15
53	15539	1088.60808292052	14
53	15558	1090.109371842341	14
53	15570	1091.111204066969	9
53	15595	1093.215390660952	20
53	15608	1094.120574551707	8
53	15614	1094.530364124789	3
53	15637	1098.7	7
53	15659	1100.6	18
53	15681	1102.404026260976	17
53	15694	1103.508613584578	10
53	15710	1104.715766949419	11
53	15729	1106.216691745624	14
53	15757	1108.619649905671	23
53	15771	1109.828648828935	11
53	15788	1111.137052725766	12
53	15812	1113.138930150946	19
53	15835	1115.044768007139	18
53	15859	1117.054668270812	19
53	15891	1121.5	15
53	15908	1122.9	13
53	15937	1125.404233776717	24
53	15958	1127.112504455849	16
53	15974	1128.314562793843	11
53	16004	1130.918519486196	25
53	16010	1131.322226553217	3
53	16036	1135.1	11
53	16066	1137.8	26
53	16087	1139.505372485618	16
53	16096	1140.0126858138	4
53	16132	1143.220932246354	31
53	16139	1143.724509134293	4
53	16169	1146.133072825847	23
53	16269	1151	10
53	16276	1151.2	1
53	16297	1151.709324612743	4
53	16339	1152.809581076367	10
53	16368	1153.610005052657	7
53	16411	1154.811619303302	11
53	16425	1155.22048061156	3
53	16485	1158.129829140171	28
53	16511	1160.339266024125	21
53	16520	1161.044198212432	6
53	16535	1162.148003369957	10
53	16543	1162.652416830161	4
53	16554	1163.560384189188	8
53	16569	1164.669975371991	10
53	16613	1170.5	25
53	16641	1173	24
53	16660	1174.501628957346	14
53	16675	1175.810260595634	12
53	16686	1176.515846314382	6
53	16695	1177.220885397885	6
53	16704	1177.928226456602	6
53	16773	1182.3	23
53	16796	1184.3	19
53	16802	1184.704889158019	3
53	16825	1186.614191278881	18
53	16845	1188.215708384274	15
53	16861	1189.62459999693	13
53	16876	1190.728130153367	10
53	16885	1191.431680471138	6
53	16903	1192.841622975936	13
53	16928	1194.946437089093	20
53	16953	1197.046579105459	20
53	16999	1202.7	27
53	17008	1203.5	7
53	17036	1205.902634531976	23
53	17048	1206.703549771867	7
53	17059	1207.609454309373	8
53	17068	1208.114035326557	4
53	17088	1209.914898126423	17
53	17122	1213.9	19
53	17129	1214.3	3
53	17137	1214.907996809585	5
53	17149	1215.908496982327	9
53	17166	1217.21620165216	12
53	17188	1219.021524734699	17
53	17206	1220.422296636367	13
53	17232	1225.1	11
53	17245	1226.1	9
53	17270	1228.207498387577	20
53	17296	1230.417247940303	21
53	17326	1233.025861345458	25
53	17344	1234.432738592727	13
53	17374	1237.039411997974	25
53	17437	1241.1	11
53	17452	1241.8	6
53	17494	1243.601312693646	17
53	17552	1246.108982123618	24
53	17598	1248.018422716359	18
53	17625	1249.223088520887	11
53	17728	1254.4	24
53	17737	1254.8	3
53	17745	1255.104104691024	2
53	17753	1255.404664426729	2
53	17761	1255.713566253379	2
53	17775	1256.218696709434	4
53	17791	1257.127388419441	8
53	17797	1257.530285484327	3
53	17820	1259.432399899626	18
53	17842	1261.23677843067	17
53	17854	1262.045811130491	7
53	17866	1263.049167884216	9
53	17870	1263.254280750043	1
53	17917	1268.7	27
53	17941	1270.8	20
53	17951	1271.604335194523	7
53	17968	1272.913104372934	12
53	17988	1274.522504960556	15
53	18003	1275.826178576975	12
53	18018	1276.926575583911	10
53	18024	1277.329071658332	3
53	18039	1278.431561520843	10
53	18044	1278.73175552048	2
53	18057	1279.84041585999	10
53	18064	1280.145437256332	2
53	18087	1284.5	5
53	18121	1287.6	30
53	18152	1290.102563539762	24
53	18172	1291.903196452187	17
53	18210	1294.2	2
53	18225	1295.6	13
53	18244	1297.101432519243	14
53	18251	1297.607510939843	4
53	18264	1298.511823510708	8
53	18274	1299.318202289551	7
53	18294	1300.920584272386	15
53	18304	1301.725304301467	7
53	18343	1306.1	21
53	18371	1308.6	24
53	18401	1311.208207605374	25
53	18415	1312.210635641904	9
53	18427	1313.211724462036	9
53	18443	1314.420506878983	11
53	18474	1317.12257796316	26
53	18506	1319.9286202725	27
53	18525	1321.43060697895	14
53	18541	1322.636963937694	11
53	18586	1326.3	3
53	18601	1327	6
53	18623	1327.904587771571	8
53	18668	1329.811923583408	18
53	18691	1330.715892834392	8
53	18730	1332.421843667541	16
53	18776	1334.424027797154	19
53	18790	1335.227218569799	7
53	18802	1336.03524918514	7
53	18814	1337.04258182447	9
53	18832	1338.44617828931	13
53	18842	1339.250134926257	7
53	18864	1341.058304846324	17
53	18897	1345.6	16
53	18922	1347.8	21
53	18955	1350.50967459643	26
53	18964	1351.217720993659	6
53	18980	1352.419939364627	11
53	18992	1353.421276892972	9
53	19004	1354.230140610096	7
53	19013	1354.937420465129	6
53	19056	1360.3	23
53	19080	1362.4	20
53	19090	1363.208366012431	7
53	19096	1363.6101547147	3
53	19118	1365.417838230705	17
53	19140	1367.222614456381	17
53	19154	1368.229231051489	9
53	19161	1368.732219127198	4
53	19190	1373.3	13
53	19211	1375.1	17
53	19231	1376.709281284825	15
53	19254	1378.615217246454	18
53	19266	1379.622893339196	9
53	19288	1381.425168413543	17
53	19311	1383.332534679379	18
53	19334	1385.242162785126	18
53	19349	1386.348408825903	10
53	19364	1387.652556638475	12
53	19394	1391.2	12
53	19415	1393	17
53	19442	1395.306390192224	22
53	19459	1396.607255082169	12
53	19485	1398.81450478477	21
53	19516	1403.3	13
53	19540	1405.4	20
53	19551	1406.107506747138	6
53	19562	1407.013813141586	8
53	19568	1407.414274973673	3
53	19643	1411.6	16
53	19659	1412.20370790272	5
53	19673	1412.917955231009	6
53	19691	1414.227888781307	12
53	19699	1414.747045845696	4
53	19706	1415.249084829813	4
53	19712	1415.649261262595	3
53	19720	1416.055151262065	3
53	19737	1417.556076249618	14
53	19761	1419.563407042415	19
53	19788	1421.868244766418	22
53	19805	1423.173097486903	12
53	19869	1428.5	25
53	19876	1429.1	5
53	19894	1430.507774264193	13
53	19914	1432.10957226681	15
53	19943	1434.614019442553	24
53	19951	1435.222992647225	5
53	19970	1436.732639902334	14
53	19996	1438.935939568199	21
53	20020	1440.940585394256	19
53	20044	1442.95040467264	19
53	20061	1444.251650511968	12
53	20069	1444.859708596427	5
53	20129	1448.2	2
53	20151	1449.2	9
53	20235	1452.906436478768	36
53	20275	1454.515339795921	15
53	20293	1455.423868442985	8
53	20312	1456.924794205507	14
53	20327	1458.034019104594	10
53	20341	1459.243634241058	11
53	20345	1459.444182446072	1
53	20390	1464.6	26
53	20413	1466.6	19
53	20438	1468.704679876936	20
53	20450	1469.713411145652	9
53	20474	1471.715504929334	19
53	20485	1472.417737565165	6
53	20497	1473.419086360815	9
53	20539	1478.2	22
53	20564	1480.4	21
53	20589	1482.505281158618	20
53	20601	1483.508806095828	9
53	20639	1486.715137709934	31
53	20650	1487.61643849954	8
53	20666	1488.82435915766	11
53	20704	1492.026174596549	31
53	20714	1492.826274676889	7
53	20758	1498.5	25
53	20772	1499.8	12
53	20797	1501.906981929917	20
53	20827	1504.307218618536	23
53	20845	1505.907497423036	15
53	20876	1508.410426423687	24
53	20896	1510.01771101705	15
53	20915	1511.726707684655	16
53	20938	1513.633396860583	18
53	20954	1514.84113994289	11
53	20975	1516.543062771752	16
53	20994	1520.1	1
53	21004	1521	8
53	21021	1522.304705411402	12
53	21030	1523.012452337414	6
53	21057	1525.317467944631	22
53	21064	1525.827181152135	4
53	21078	1526.828222895343	9
53	21083	1527.130173766747	2
53	21106	1529.039816806331	18
53	21120	1530.046056354067	9
53	21131	1530.951805500111	8
53	21150	1532.461766504172	14
53	21196	1538.7	27
53	21213	1540.1	13
53	21227	1541.308217841568	11
53	21240	1542.211750319031	8
53	21263	1544.117477696383	18
53	21290	1546.426537241485	22
53	21305	1547.732054860478	12
53	21320	1548.836111412737	10
53	21330	1549.643218471183	7
53	21339	1550.145617746073	4
53	21354	1551.454992205833	12
53	21372	1552.863765839514	13
53	21412	1558.1	21
53	21422	1559	8
53	21443	1560.708579181816	16
53	21463	1562.316697850463	15
53	21491	1564.720784480474	23
53	21513	1566.522502567502	17
53	21529	1567.931169276995	13
53	21559	1570.336605202265	23
53	21580	1572.044773161732	16
53	21600	1573.848284496454	17
53	21614	1574.851209788691	9
53	21641	1577.156350836004	22
53	21645	1577.358707923279	1
53	21691	1582.6	26
53	21715	1584.7	20
53	21727	1585.709086038735	9
53	21743	1586.912556202324	11
53	21753	1587.722547995986	7
53	21769	1588.924656824504	11
53	21780	1589.834489001002	8
53	21796	1591.034695653714	11
53	21824	1595.2	12
53	21844	1596.9	16
53	21856	1597.905369786047	9
53	21870	1598.910480488298	9
53	21888	1600.316876040742	13
53	21909	1602.024230096038	16
53	21916	1602.529781560004	4
53	21930	1603.737845982334	11
53	21948	1605.142146115198	13
53	21971	1607.04423272195	18
53	22038	1614.5	45
53	22047	1615.3	7
53	22067	1616.901749618197	15
53	22075	1617.508878164912	5
53	22096	1619.212340813562	16
53	22104	1619.818247478782	5
53	22121	1621.128232608221	12
53	22134	1622.033587155381	8
53	22158	1624.036827035755	19
53	22172	1625.244319910166	11
53	22192	1626.853020580179	15
53	22200	1627.453715535379	5
53	22215	1628.554261951313	10
53	22234	1630.060488823178	14
53	22243	1630.768086214888	6
53	22325	1636	20
53	22356	1637.4	13
53	22412	1639.802853386711	23
53	22468	1642.103892123523	22
53	22522	1644.507818114485	23
53	22536	1645.008964007207	4
53	22570	1646.51870396833	14
53	22620	1648.721997308906	21
53	22646	1649.927019881962	11
53	22664	1650.73085280304	7
53	22672	1651.339024227516	5
53	22678	1651.739978256079	3
53	22733	1657.5	35
53	22750	1658.9	13
53	22768	1660.300278264796	13
53	22786	1661.909789241368	15
53	22800	1662.911429214688	9
53	22815	1664.017743469582	10
53	22833	1665.625598266812	15
53	22852	1667.129652532602	14
53	22878	1669.332587618203	21
53	22943	1676.8	48
53	22969	1679.3	24
53	22984	1680.605101083698	12
53	23010	1683.008839709518	23
53	23024	1684.214930329491	11
