version 2
run Join-5-20130520-16:32:10-32715
attr configname Join
attr datetime 20130520-16:32:10
attr experiment "\"Join\""
attr inifile omnetpp.ini
attr iterationvars $0=32
attr iterationvars2 "$0=32, $repetition=5"
attr measurement $0=32
attr network Network
attr processid 32715
attr repetition 5
attr replication #5
attr resultdir results
attr runnumber 5
attr seedset 5

vector 5  Network.dyn_peer[0]  lookupHopsSig:vector  ETV
5	347	20.233083713811	4
5	368	24.3	3
5	371	24.5	1
5	375	24.706388776814	1
5	382	25.21594926288	4
5	386	25.420883413417	1
5	406	28.2	2
5	409	28.4	1
5	415	28.8093259473	3
5	419	29.018761348158	1
5	425	29.419612398447	3
5	429	29.620729322683	1
5	451	32.4	4
5	455	32.7	2
5	460	33.003527231407	2
5	466	33.404535504143	3
5	470	33.609376107101	1
5	492	36.4	4
5	496	36.609611030889	1
5	501	36.90996260594	2
5	506	37.213677732147	2
5	512	37.615204363315	3
5	516	37.815328057421	1
5	524	38.218545025918	3
5	530	38.627142094851	3
5	536	39.028317173223	3
5	557	42.3	3
5	562	42.7	3
5	568	43.108499800309	3
5	572	43.316422213509	1
5	577	43.621569593164	2
5	585	44.026031294396	3
5	590	44.330497372665	2
5	595	44.640204851231	2
5	602	45.148209615416	4
5	610	45.75331675062	5
5	617	46.053520664414	2
5	622	46.358381654002	2
5	627	46.664107840504	2
5	631	46.864641967732	1
5	635	47.068755803922	1
5	655	50.2	2
5	660	50.6	3
5	665	50.906274967449	2
5	671	51.306814588426	3
5	694	54.5	5
5	697	54.7	1
5	701	54.905899367565	1
5	706	55.212928788298	2
5	711	55.517992546497	2
5	716	55.82131302798	2
5	723	56.123485856857	2
5	728	56.427085688828	2
5	732	56.632826423616	1
5	752	60.2	2
5	756	60.5	2
5	761	60.804076857322	2
5	767	61.206487564018	3
5	772	61.515473275554	2
5	776	61.7240229122	1
5	783	62.02732544476	2
5	790	62.429578995255	3
5	795	62.737177865234	2
5	800	63.042445040839	2
5	818	66	0
5	823	66.4	3
5	829	66.801280513757	3
5	835	67.210932089234	3
5	839	67.412155269213	1
5	860	70.3	3
5	865	70.7	3
5	870	71.007100490415	2
5	875	71.316145261874	2
5	879	71.523160790182	1
5	884	71.82577115196	2
5	892	72.233444465738	3
5	898	72.639411775799	3
5	921	76.5	5
5	925	76.8	2
5	930	77.100830544412	2
5	936	77.507279799389	3
5	940	77.709676203801	1
5	944	77.91309294418	1
5	963	80.1	1
5	969	80.6	4
5	975	81.008103142327	3
5	980	81.310104987269	2
5	988	81.910705948978	5
5	995	82.214515584398	2
5	1000	82.424248142232	1
5	1006	82.832379847526	3
5	1027	86.3	3
5	1035	86.617821728611	2
5	1042	87.118781977128	4
5	1046	87.326859751534	1
5	1068	90.4	4
5	1074	90.9	4
5	1081	91.316346432636	3
5	1087	91.725592890192	3
5	1094	92.033695745497	2
5	1099	92.341277268224	2
5	1105	92.74717100694	3
5	1109	92.955961822775	1
5	1115	93.365109166131	3
5	1126	94.073650616326	6
5	1147	98.3	3
5	1153	98.8	4
5	1158	99.105709752154	2
5	1163	99.409216687751	2
5	1185	102.4	4
5	1191	102.9	4
5	1196	103.206594172797	2
5	1205	103.90832379107	6
5	1214	104.418188805518	4
5	1235	108.3	3
5	1239	108.6	2
5	1247	109.209320595485	5
5	1252	109.514048876987	2
5	1261	110.021111084573	4
5	1268	110.436994226633	3
5	1273	110.73941281716	2
5	1277	110.946784677564	1
5	1283	111.347095978185	3
5	1287	111.55094112195	1
5	1308	114.3	3
5	1312	114.6	2
5	1319	115.108923332693	4
5	1325	115.517216979038	3
5	1330	115.821810435041	2
5	1337	116.122763574477	2
5	1341	116.326950115535	1
5	1345	116.528198489236	1
5	1366	120.3	3
5	1371	120.7	3
5	1378	121.209612111442	4
5	1384	121.613236704184	3
5	1392	122.021126805275	3
5	1397	122.330574392912	2
5	1419	126.4	4
5	1426	127	5
5	1432	127.406039841412	3
5	1438	127.807699587614	3
5	1446	128.215185345689	3
5	1452	128.620469606447	3
5	1473	132.3	3
5	1478	132.7	3
5	1483	133.002184977792	2
5	1488	133.310030066522	2
5	1495	133.814286439858	4
5	1501	134.022876881141	1
5	1519	138	0
5	1522	138.2	1
5	1527	138.503653330169	2
5	1532	138.811300895797	2
5	1538	139.216080308911	3
5	1544	139.623676079032	3
5	1549	139.929096983175	2
5	1557	140.329866049706	3
5	1576	144.1	1
5	1583	144.603018860989	4
5	1587	144.804543590713	1
5	1592	145.105908391701	2
5	1598	145.507007575579	3
5	1619	148.3	3
5	1624	148.7	3
5	1629	149.006013411527	2
5	1636	149.51298513987	4
5	1642	149.922957394555	3
5	1651	150.427215548179	4
5	1656	150.732824694074	2
5	1660	150.941288399656	1
5	1668	151.357878426537	3
5	1688	154.2	2
5	1693	154.6	3
5	1697	154.801458106569	1
5	1703	155.207343107228	3
5	1708	155.513828487269	2
5	1713	155.819878530419	2
5	1720	156.123747077605	2
5	1724	156.327294932242	1
5	1728	156.531918068955	1
5	1734	156.939691888937	3
5	1739	157.240763362792	2
5	1743	157.44680939596	1
5	1747	157.64858600959	1
5	1752	157.951678317261	2
5	1760	158.357426890565	3
5	1780	162.3	3
5	1784	162.6	2
5	1789	162.903477291646	2
5	1797	163.511913427626	5
5	1806	164.012041908348	4
5	1812	164.415030165178	3
5	1834	168.4	4
5	1839	168.8	3
5	1846	169.20754202918	3
5	1852	169.611025349072	3
5	1860	170.019724258489	3
5	1868	170.625636481628	5
5	1874	171.02941276387	3
5	1880	171.437162895185	3
5	1885	171.741999045809	2
5	1889	171.948246590472	1
5	1907	174	0
5	1914	174.6	5
5	1921	175.106880894112	4
5	1925	175.314186806776	1
5	1944	178.1	1
5	1950	178.6	4
5	1955	178.908960807884	2
5	1961	179.31405555881	3
5	1968	179.820360838725	4
5	1976	180.222042920301	3
5	1983	180.636460800594	3
5	2002	184.1	1
5	2005	184.3	1
5	2012	184.80929330131	4
5	2016	185.011108113415	1
5	2023	185.516735176287	4
5	2029	185.917932866487	3
5	2048	188.1	1
5	2051	188.3	1
5	2056	188.607108311189	2
5	2061	188.914600157774	2
5	2066	189.223253813533	2
5	2071	189.53085912893	2
5	2076	189.83512988102	2
5	2095	192.1	1
5	2101	192.6	4
5	2108	193.10192279295	4
5	2112	193.304127035517	1
5	2117	193.605674486664	2
5	2122	193.905891981549	2
5	2129	194.209962771137	2
5	2148	198.1	1
5	2152	198.4	2
5	2158	198.802690282342	3
5	2164	199.204301606846	3
5	2168	199.412250504154	1
5	2173	199.719643011542	2
5	2183	200.226068351817	4
5	2189	200.629467019924	3
5	2193	200.837169619913	1
5	2213	204.2	2
5	2218	204.6	3
5	2224	205.004961453815	3
5	2229	205.308759237666	2
5	2250	208.3	3
5	2254	208.6	2
5	2260	209.007597272407	3
5	2265	209.315024779815	2
5	2269	209.524992763028	1
5	2275	209.927997721699	3
5	2282	210.237141470706	2
5	2288	210.64512933341	3
5	2292	210.854428557384	1
5	2314	214.4	4
5	2320	214.9	4
5	2326	215.304381688968	3
5	2333	215.806840437333	4
5	2354	218.3	3
5	2359	218.7	3
5	2364	218.91669303239	1
5	2369	219.220417356883	2
5	2374	219.529740887636	2
5	2379	219.831927704876	2
5	2385	220.040756878137	1
5	2402	224.2	2
5	2405	224.4	1
5	2410	224.706337164752	2
5	2415	225.014118338678	2
5	2434	228.1	1
5	2437	228.3	1
5	2442	228.602651126619	2
5	2447	228.91261799103	2
5	2452	229.212715074139	2
5	2457	229.513587060927	2
5	2462	229.819081695519	2
5	2468	230.020651706086	1
5	2472	230.227726968311	1
5	2476	230.43231804709	1
5	2481	230.740374993174	2
5	2486	231.050052301187	2
5	2490	231.251958864528	1
5	2510	234.2	2
5	2513	234.4	1
5	2517	234.604238960503	1
5	2524	235.106820824344	4
5	2528	235.315760231597	1
5	2533	235.618685036168	2
5	2542	236.126445409235	4
5	2546	236.330701849368	1
5	2550	236.533028944309	1
5	2555	236.740624692133	1
5	2574	240.1	1
5	2581	240.608878993971	4
5	2588	241.116408398101	4
5	2595	241.532583194777	3
5	2604	242.037310983563	4
5	2611	242.540605415088	4
5	2618	243.043660900381	4
5	2623	243.348197220515	2
5	2628	243.651699016341	2
5	2649	246.3	3
5	2652	246.5	1
5	2657	246.701686855046	1
5	2662	247.005834774404	2
5	2669	247.507965224086	4
5	2673	247.708659648323	1
5	2694	250.3	3
5	2699	250.602065026832	2
5	2707	251.108825088903	4
5	2712	251.415206828162	2
5	2717	251.716023123788	2
5	2724	252.020073064784	2
5	2744	256.2	2
5	2749	256.504457924594	2
5	2755	256.907463351613	3
5	2763	257.318014792309	3
5	2784	260.3	3
5	2790	260.707074094042	3
5	2797	261.207551477777	4
5	2802	261.421333278418	1
5	2806	261.625945064011	1
5	2827	264.3	3
5	2834	264.9	5
5	2839	265.201329058019	2
5	2845	265.601629653297	3
5	2853	266.005282517854	3
5	2859	266.41197549236	3
5	2880	270.3	3
5	2885	270.7	3
5	2889	270.909256518147	1
5	2895	271.131082863037	1
5	2916	274.3	3
5	2920	274.6	2
5	2925	274.905831126337	2
5	2930	275.207946063938	2
5	2937	275.711434339684	4
5	2941	275.913509738881	1
5	2947	276.117270059066	1
5	2951	276.318254429746	1
5	2971	280.2	2
5	2976	280.6	3
5	2984	281.200260372399	5
5	2988	281.408163238807	1
5	2994	281.717597756957	2
5	3013	284.1	1
5	3016	284.3	1
5	3022	284.708590982123	3
5	3029	285.122116929659	3
5	3034	285.423857442187	2
5	3056	288.4	4
5	3061	288.8	3
5	3065	289.005254494815	1
5	3069	289.210544492222	1
5	3076	289.711590094262	4
5	3087	290.415068834338	6
5	3091	290.618028808664	1
5	3095	290.8203728499	1
5	3114	294.1	1
5	3120	294.6	4
5	3126	295.004696664847	3
5	3133	295.509958137941	4
5	3142	296.012809948589	4
5	3162	300.2	2
5	3167	300.6	3
5	3172	300.900882407159	2
5	3176	301.108076405995	1
5	3180	301.316053375722	1
5	3184	301.51742216599	1
5	3207	304.5	5
5	3211	304.8	2
5	3218	305.300575247101	4
5	3222	305.508436520887	1
5	3226	305.714638584037	1
5	3248	308.4	4
5	3253	308.8	3
5	3258	309.107669731369	2
5	3264	309.510657454756	3
5	3269	309.818775757305	2
5	3276	310.122843087071	2
5	3281	310.427459702473	2
5	3288	310.742720886719	2
5	3293	311.043694749165	2
5	3297	311.248761547168	1
5	3317	314.3	3
5	3323	314.8	4
5	3327	315.002202720206	1
5	3333	315.411079897868	3
5	3339	315.818569049035	3
5	3347	316.226180205934	3
5	3351	316.434246502534	1
5	3370	320.1	1
5	3373	320.3	1
5	3378	320.605318248667	2
5	3383	320.911891711241	2
5	3388	321.220845047797	2
5	3410	324.4	4
5	3415	324.8	3
5	3421	325.109136335649	2
5	3426	325.417575871874	2
5	3433	325.924607367324	4
5	3455	328.4	4
5	3459	328.7	2
5	3465	329.008945801294	2
5	3470	329.315474100109	2
5	3476	329.718689109138	3
5	3496	332.2	2
5	3501	332.6	3
5	3507	333.002951914782	3
5	3512	333.311272540187	2
5	3517	333.618912886773	2
5	3525	334.028295772129	3
5	3530	334.33150620944	2
5	3535	334.639832293518	2
5	3539	334.844875517623	1
5	3560	338.3	3
5	3566	338.8	4
5	3572	339.206378826645	3
5	3580	339.812620711712	5
5	3588	340.222472143791	3
5	3594	340.625900224101	3
5	3614	344.2	2
5	3617	344.4	1
5	3622	344.704321818915	2
5	3627	345.009519483856	2
5	3631	345.211225203207	1
5	3639	345.815716744597	5
5	3647	346.126846520209	2
5	3654	346.630605675442	4
5	3660	347.032334446489	3
5	3680	350.2	2
5	3686	350.7	4
5	3692	351.102038984596	3
5	3696	351.305664361549	1
5	3703	351.722225275492	3
5	3710	352.027953494315	2
5	3715	352.336909489955	2
5	3721	352.738508590359	3
5	3726	353.047658923551	2
5	3732	353.4534574209	3
5	3736	353.657672977103	1
5	3757	356.3	3
5	3760	356.5	1
5	3764	356.706548308522	1
5	3772	357.123061150528	3
5	3776	357.323145095025	1
5	3794	360	0
5	3799	360.4	3
5	3804	360.705145660203	2
5	3808	360.906664654137	1
5	3814	361.314246810089	3
5	3818	361.518659976777	1
5	3824	361.926992793984	3
5	3846	364.4	4
5	3852	364.705726345879	2
5	3856	364.913083061209	1
5	3862	365.319035912504	3
5	3869	365.822328370819	4
5	3879	366.32350476915	4
5	3886	366.831651821944	4
5	3890	367.034562558671	1
5	3911	370.3	3
5	3914	370.5	1
5	3920	370.906381348767	3
5	3925	371.206668933333	2
5	3932	371.430041710217	1
5	3937	371.73660320711	2
5	3942	371.947195000134	1
5	3949	372.161808749245	1
5	3967	376	0
5	3971	376.3	2
5	3975	376.506522889784	1
5	3983	377.111533436008	5
5	3988	377.413636576723	2
5	4007	380.1	1
5	4010	380.3	1
5	4016	380.700583857542	3
5	4025	381.307076915596	5
5	4031	381.707283654294	3
5	4040	382.114709801284	3
5	4047	382.615175457528	4
5	4066	386.1	1
5	4070	386.4	2
5	4075	386.70840989185	2
5	4080	387.010937054601	2
5	4085	387.318565052558	2
5	4090	387.619695430783	2
5	4111	390.3	3
5	4115	390.6	2
5	4121	391.003440168951	3
5	4127	391.408158079112	3
5	4134	391.824379320789	3
5	4154	394.2	2
5	4160	394.7	4
5	4167	395.202406163394	4
5	4173	395.604429691959	3
5	4178	395.90818758844	2
5	4184	396.112432576246	1
5	4190	396.521377768933	3
5	4211	400.3	3
5	4216	400.7	3
5	4221	401.00190403358	2
5	4225	401.210123620486	1
5	4231	401.617018212604	3
5	4238	401.925329908077	2
5	4260	404.4	4
5	4264	404.7	2
5	4268	404.902702038465	1
5	4273	405.209088862242	2
5	4278	405.50930818125	2
5	4282	405.710362057097	1
5	4291	406.219075565906	4
5	4297	406.623769064631	3
5	4319	410.4	4
5	4323	410.7	2
5	4328	411.002463311939	2
5	4333	411.307229996332	2
5	4337	411.51645051811	1
5	4342	411.823914157749	2
5	4348	412.024730439401	1
5	4353	412.326174231421	2
5	4358	412.629540815861	2
5	4378	416.3	3
5	4382	416.6	2
5	4386	416.800747249829	1
5	4391	417.106523834915	2
5	4397	417.507201700889	3
5	4403	417.911448271696	3
5	4423	420.2	2
5	4427	420.5	2
5	4432	420.80422538801	2
5	4439	421.307694556835	4
5	4444	421.615006708526	2
5	4452	422.017121977477	3
5	4456	422.219779726866	1
5	4461	422.529531227132	2
5	4466	422.832680492101	2
5	4471	423.141070314229	2
5	4490	426.3	3
5	4496	426.705800408814	3
5	4502	427.105941387652	3
5	4508	427.515697982334	3
5	4514	427.922978680768	3
5	4520	428.123413611297	1
5	4525	428.426076846798	2
5	4544	432.1	1
5	4550	432.6	4
5	4556	432.912159289998	2
5	4561	433.221024732115	2
5	4568	433.624383705653	3
5	4576	434.025296871823	3
5	4596	438.2	2
5	4602	438.7	4
5	4608	439.106580496041	3
5	4615	439.517215037035	3
5	4636	442.3	3
5	4640	442.6	2
5	4645	442.901893977038	2
5	4653	443.503911369337	5
5	4659	443.912310377609	3
5	4666	444.212671644983	2
5	4670	444.420101062275	1
5	4676	444.821459085947	3
5	4680	445.023905848142	1
5	4684	445.228143717176	1
5	4703	448.1	1
5	4709	448.6	4
5	4714	448.900911616908	2
5	4720	449.301110514946	3
5	4727	449.804688690671	4
5	4735	450.212209527071	3
5	4740	450.51971653691	2
5	4747	451.02785471698	4
5	4751	451.229142392372	1
5	4773	454.4	4
5	4777	454.7	2
5	4781	454.907813339387	1
5	4786	455.207853557239	2
5	4792	455.612826297545	3
5	4800	456.020560832667	3
5	4806	456.429523473121	3
5	4826	460.2	2
5	4831	460.6	3
5	4837	461.005260342783	3
5	4844	461.513311920554	4
5	4849	461.821105599556	2
5	4858	462.326956462824	4
5	4864	462.733544914674	3
5	4883	466.1	1
5	4888	466.5	3
5	4892	466.700149621539	1
5	4899	467.107461824573	3
5	4904	467.407514701096	2
5	4924	470.2	2
5	4929	470.6	3
5	4934	470.905077071227	2
5	4940	471.310244762932	3
5	4944	471.514003512002	1
5	4966	474.4	4
5	4970	474.7	2
5	4974	474.905277993548	1
5	4981	475.411567646355	4
5	4985	475.618840601108	1
5	4994	476.122509854469	4
5	5014	480.2	2
5	5019	480.6	3
5	5025	480.909976533269	2
5	5030	481.123941948785	1
5	5034	481.328652205905	1
5	5039	481.638216849179	2
5	5043	481.840300682308	1
5	5050	482.053974663183	1
5	5054	482.259156976792	1
5	5074	486.2	2
5	5079	486.6	3
5	5083	486.809033742367	1
5	5088	487.111549857861	2
5	5092	487.317147611639	1
5	5097	487.617700274375	2
5	5101	487.825771889193	1
5	5108	488.135306528788	2
5	5112	488.340597682385	1
5	5134	492.4	4
5	5140	492.9	4
5	5145	493.113804866037	1
5	5149	493.32146272139	1
5	5169	496.2	2
5	5173	496.5	2
5	5177	496.700021048544	1
5	5181	496.900125987075	1
5	5185	497.106949361778	1
5	5190	497.410282755513	2
5	5194	497.62008296798	1
5	5212	500.3	3
5	5217	500.7	3
5	5222	501.009162472481	2
5	5227	501.311139363678	2
5	5233	501.712746902463	3
5	5237	501.920411795339	1
5	5258	504.3	3
5	5261	504.5	1
5	5268	504.913333792979	3
5	5274	505.322609476485	3
5	5279	505.625602012903	2
5	5283	505.825925096108	1
5	5290	506.134732146139	2
5	5295	506.435567344717	2
5	5303	507.035885093637	5
5	5324	510.3	3
5	5330	510.704405616789	3
5	5337	511.208074486257	4
5	5342	511.508159476561	2
5	5347	511.716275455201	1
5	5356	512.128073794754	3
5	5362	512.432676293482	2
5	5368	512.836222082453	3
5	5372	513.037248717846	1
5	5393	516.3	3
5	5399	516.8	4
5	5406	517.206119608652	3
5	5414	517.813595709885	5
5	5423	518.321889988268	4
5	5430	518.827663815466	4
5	5437	519.330405837648	4
5	5457	522.3	3
5	5461	522.6	2
5	5466	522.905450644392	2
5	5474	523.514804802773	5
5	5479	523.81560185405	2
5	5483	524.022961058896	1
5	5488	524.323945173842	2
5	5494	524.727348985776	3
5	5499	525.031668708363	2
5	5503	525.237813784344	1
5	5508	525.450934309028	1
