version 2
run Join-37-20130520-16:32:18-32715
attr configname Join
attr datetime 20130520-16:32:18
attr experiment "\"Join\""
attr inifile omnetpp.ini
attr iterationvars $0=256
attr iterationvars2 "$0=256, $repetition=7"
attr measurement $0=256
attr network Network
attr processid 32715
attr repetition 7
attr replication #7
attr resultdir results
attr runnumber 37
attr seedset 37

vector 37  Network.dyn_peer[0]  lookupHopsSig:vector  ETV
37	967	21.3	13
37	978	22.1	7
37	987	22.809360815808	6
37	997	23.61205253136	7
37	1009	24.421212978797	7
37	1036	28.9	9
37	1055	30.5	15
37	1070	31.809886275823	12
37	1084	32.811253717757	9
37	1091	33.311586543876	4
37	1104	34.215589172598	8
37	1115	35.123847398962	8
37	1178	38.9	9
37	1184	39.4	4
37	1202	40.800694309284	13
37	1210	41.40235070445	5
37	1221	42.103223954486	6
37	1231	42.904754000283	7
37	1242	43.813633038744	8
37	1262	46.2	2
37	1266	46.5	2
37	1274	47.106089224198	5
37	1287	48.014657600489	8
37	1298	48.922129586908	8
37	1306	49.525577522617	5
37	1316	50.131825193034	5
37	1345	55.1	11
37	1361	56.4	12
37	1371	57.111435964789	6
37	1386	58.215120935965	10
37	1399	59.32104715881	10
37	1418	60.821958632304	14
37	1429	61.727147483863	8
37	1443	62.734840495789	9
37	1462	64.240652891024	14
37	1474	65.250010851555	9
37	1489	66.35449312219	10
37	1502	67.464198504358	10
37	1512	68.069209678186	5
37	1543	73.3	13
37	1546	73.5	1
37	1552	73.907966450941	3
37	1562	74.514692109557	5
37	1574	75.517551960844	9
37	1580	75.918814239521	3
37	1587	76.228247853469	2
37	1613	81.1	11
37	1618	81.5	3
37	1623	81.802000492254	2
37	1634	82.505724893721	6
37	1644	83.311297406688	7
37	1655	84.014651266554	6
37	1659	84.218132099824	1
37	1669	85.019331029677	7
37	1691	86.823558214327	17
37	1714	90.5	5
37	1718	90.8	2
37	1727	91.505376353501	6
37	1738	92.20818030066	6
37	1749	93.118122437341	8
37	1756	93.625524743304	4
37	1764	94.033571685296	3
37	1769	94.338884772634	2
37	1797	99	10
37	1805	99.7	6
37	1815	100.303464026344	5
37	1833	101.91123342558	15
37	1851	103.313150823048	13
37	1858	103.819684240426	4
37	1870	104.621799593008	7
37	1877	105.123448235715	4
37	1895	106.524925492271	13
37	1916	108.229158630657	16
37	1926	109.030585196045	7
37	1952	112.8	8
37	1964	113.9	10
37	1976	114.70689315614	7
37	1986	115.515850926658	7
37	2014	119	10
37	2032	120.5	14
37	2052	122.106711156046	15
37	2067	123.412664942302	12
37	2089	125.213796986493	17
37	2096	125.72248629312	4
37	2118	127.525047842682	17
37	2144	131.1	11
37	2156	132	8
37	2164	132.605680819582	5
37	2176	133.61302010355	9
37	2194	135.017044174915	13
37	2209	136.126991967951	10
37	2219	136.935186306322	7
37	2231	137.944731061984	9
37	2248	139.246792994171	12
37	2254	139.649873640096	3
37	2284	143.2	12
37	2289	143.6	3
37	2302	144.507018819169	8
37	2310	145.110241309981	5
37	2315	145.418625400798	2
37	2331	146.621373967731	11
37	2337	147.026141832687	3
37	2347	147.833509866827	7
37	2353	148.040473930818	1
37	2361	148.64991145822	5
37	2384	150.558891967684	18
37	2406	154.4	4
37	2415	155.2	7
37	2428	156.100679463909	8
37	2442	157.310260998194	11
37	2453	158.013579558827	6
37	2468	159.317478592851	12
37	2474	159.723776019559	3
37	2488	160.733608838632	9
37	2507	162.141962820454	13
37	2527	166.2	2
37	2535	166.9	6
37	2550	168.001010223587	10
37	2566	169.402980768444	13
37	2570	169.609497807287	1
37	2585	170.712555551757	10
37	2607	174.4	4
37	2612	174.8	3
37	2617	175.107592679383	2
37	2623	175.508334802898	3
37	2633	176.118096529046	5
37	2638	176.419004024414	2
37	2653	177.721834579007	12
37	2669	178.927199426518	11
37	2695	182.8	8
37	2702	183.4	5
37	2717	184.500160296072	10
37	2729	185.504564918597	9
37	2733	185.707174695214	1
37	2741	186.112292059134	3
37	2745	186.313881754619	1
37	2752	186.815911547355	4
37	2757	187.125732458515	2
37	2766	187.830916857201	6
37	2775	188.340264869179	4
37	2800	192.8	8
37	2805	193.2	3
37	2811	193.601278648341	3
37	2825	194.60801227264	9
37	2834	195.310369894927	6
37	2842	195.916929910863	5
37	2852	196.5229395628	5
37	2868	197.932584573654	13
37	2886	199.334997643678	13
37	2898	200.142846363942	7
37	2906	200.746936738149	5
37	2912	201.154148766882	3
37	2938	204.8	8
37	2948	205.7	8
37	2959	206.406682693616	6
37	2974	207.713126577299	12
37	2986	208.514257426084	7
37	2995	209.220863022228	6
37	3017	212.4	4
37	3026	213.2	7
37	3031	213.500319956843	2
37	3045	214.50138108346	9
37	3055	215.304219962026	7
37	3067	216.113843272317	7
37	3074	216.618008037393	4
37	3094	220.2	2
37	3101	220.8	5
37	3114	221.903140296924	10
37	3121	222.208287778962	2
37	3127	222.615464861543	3
37	3142	223.92529442848	12
37	3148	224.130021767789	1
37	3152	224.331858905316	1
37	3157	224.633597085836	2
37	3166	225.339717182099	6
37	3193	228.9	9
37	3202	229.7	7
37	3218	230.905303917715	11
37	3224	231.314951567921	3
37	3235	232.018287295024	6
37	3242	232.522276401864	4
37	3249	233.024771959103	4
37	3268	234.524987712014	14
37	3274	234.929570987001	3
37	3283	235.638485568477	6
37	3306	238.5	5
37	3315	239.3	7
37	3326	240.008025987453	6
37	3333	240.511832048301	4
37	3338	240.820272710651	2
37	3348	241.628256141016	7
37	3362	242.629301371098	9
37	3368	243.038132846072	3
37	3378	243.846350578088	7
37	3387	244.353802327105	4
37	3397	245.155221886866	7
37	3410	246.059856928184	8
37	3438	251	10
37	3445	251.6	5
37	3456	252.304351789879	6
37	3467	253.206458179405	8
37	3476	253.912644912429	6
37	3484	254.315415028124	3
37	3493	255.017517789979	6
37	3517	258.6	6
37	3527	259.5	8
37	3541	260.501062470478	9
37	3547	260.905855582788	3
37	3562	262.006118081615	10
37	3567	262.312620235409	2
37	3571	262.516440044497	1
37	3590	264.020250985866	14
37	3613	268.5	5
37	3628	269.9	13
37	3643	271.006777205171	10
37	3660	272.315312589965	12
37	3671	273.219254116631	8
37	3689	274.622198613682	13
37	3707	276.030283627878	13
37	3729	280.7	7
37	3733	281	2
37	3753	282.604224068066	15
37	3763	283.412160840011	7
37	3775	284.22058477411	7
37	3848	289.4	14
37	3855	289.7	2
37	3879	290.600879047831	8
37	3897	291.406625184036	7
37	3903	291.816475579122	3
37	3917	292.816660527629	9
37	3927	293.623295587196	7
37	3940	294.532493578106	8
37	3948	295.14179011748	5
37	3968	298.2	2
37	3975	298.8	5
37	3981	299.208053450875	3
37	3990	299.916849774776	6
37	4001	300.623809918295	6
37	4009	301.230157758478	5
37	4017	301.837818646625	5
37	4027	302.443121234312	5
37	4040	303.549966605867	10
37	4052	304.35172586584	7
37	4064	305.360955897674	9
37	4089	308.9	9
37	4097	309.6	6
37	4112	310.70042306056	10
37	4126	311.906963512191	11
37	4141	313.0083231868	10
37	4155	314.013117075961	9
37	4171	315.415430584324	13
37	4188	316.722965852969	12
37	4195	317.223462010239	4
37	4210	318.326126097213	10
37	4218	318.933178348979	5
37	4250	323.4	14
37	4261	324.2	7
37	4272	325.108960864464	8
37	4281	325.809181923728	6
37	4288	326.116632092168	2
37	4293	326.424712683699	2
37	4304	327.325681750866	8
37	4319	328.430518263141	10
37	4329	329.235782098586	7
37	4357	333	10
37	4372	334.2	11
37	4391	335.906894495098	16
37	4405	336.908561875451	9
37	4416	337.817618266717	8
37	4432	339.024814268907	11
37	4437	339.332730256935	2
37	4449	340.133272838312	7
37	4460	341.035704885412	8
37	4491	345.3	13
37	4498	345.9	5
37	4508	346.503959064115	5
37	4518	347.31011725369	7
37	4529	348.019722218786	6
37	4559	353.2	12
37	4566	353.8	5
37	4577	354.503122974827	6
37	4591	355.712685075101	11
37	4601	356.313661126593	5
37	4607	356.718208960102	3
37	4633	360.8	8
37	4645	361.9	10
37	4660	363.006322106071	10
37	4668	363.610563907385	5
37	4679	364.310773819297	6
37	4696	365.816316656156	14
37	4711	366.918160804403	10
37	4726	368.024640757408	10
37	4740	369.234313968805	11
37	4756	370.434877467212	11
37	4781	372.53946948845	20
37	4805	376.6	6
37	4815	377.5	8
37	4827	378.302957399717	7
37	4838	379.211118510844	8
37	4854	380.415232808246	11
37	4865	381.322326434385	8
37	4878	382.227428105683	8
37	4890	383.228756787385	9
37	4897	383.730546932319	4
37	4925	387	10
37	4935	387.9	8
37	4954	389.406200079612	14
37	4970	390.61393006174	11
37	4990	392.216684134568	15
37	5009	393.923461898188	16
37	5020	394.630240547358	6
37	5025	394.937899046176	2
37	5041	396.14713976428	11
37	5063	400.5	5
37	5074	401.5	9
37	5080	401.907293990305	3
37	5086	402.112009221284	1
37	5093	402.618020292014	4
37	5098	402.921942613831	2
37	5114	404.127548005528	11
37	5122	404.730257214429	5
37	5148	408.8	8
37	5157	409.6	7
37	5167	410.203169387725	5
37	5175	410.80343215824	5
37	5183	411.409899945584	5
37	5190	411.917919661261	4
37	5200	412.524075967176	5
37	5209	413.229571069199	6
37	5216	413.738199028842	4
37	5229	414.640405556651	8
37	5255	418.8	8
37	5262	419.4	5
37	5277	420.50148621296	10
37	5285	421.106737725687	5
37	5294	421.808765713855	6
37	5303	422.30940316096	4
37	5309	422.718806280158	3
37	5317	423.325540215221	5
37	5333	424.529515806074	11
37	5347	425.733726979201	11
37	5356	426.243099991223	4
37	5365	426.94880129354	6
37	5371	427.355811555696	3
37	5378	427.858211193977	4
37	5387	428.361253749423	4
37	5417	433.2	12
37	5435	434.7	14
37	5443	435.308692731731	5
37	5458	436.416091992123	10
37	5470	437.421769618239	9
37	5481	438.127139973231	6
37	5511	443.2	12
37	5518	443.8	5
37	5534	445.001771853801	11
37	5544	445.802364102222	7
37	5564	447.404080192066	15
37	5577	448.308332709799	8
37	5599	452.4	4
37	5619	454.1	16
37	5637	455.705504757983	15
37	5648	456.408547712487	6
37	5658	457.211676255503	7
37	5677	458.721155600115	14
37	5685	459.330560699526	5
37	5699	460.337640517509	9
37	5725	464.8	8
37	5733	465.5	6
37	5743	466.10151722864	5
37	5752	466.804762902718	6
37	5760	467.407012490331	5
37	5770	468.016703694284	5
37	5788	469.61867587232	15
37	5821	473.8	18
37	5829	474.3	4
37	5835	474.701597010653	3
37	5846	475.515089696583	7
37	5859	476.418316483872	8
37	5870	477.320149885371	8
37	5882	478.127790221403	7
37	5894	479.129158128575	9
37	5901	479.633820339912	4
37	5910	480.134618309012	4
37	5933	484.5	5
37	5944	485.5	9
37	5954	486.100953768992	5
37	5969	487.403116325272	12
37	5980	488.104708162284	6
37	5989	488.804757255076	6
37	5994	489.107644583564	2
37	6010	490.314347620391	11
37	6017	490.822026362809	4
37	6025	491.423964091079	5
37	6031	491.824207117313	3
37	6040	492.333372358197	4
37	6067	496.9	9
37	6085	498.4	14
37	6095	499.202696297592	7
37	6101	499.611624393637	3
37	6111	500.21514342476	5
37	6124	501.316331464274	10
37	6135	502.018767745074	6
37	6142	502.524358314618	4
37	6150	503.131036959986	5
37	6172	506.4	4
37	6180	507.1	6
37	6198	508.507832474694	13
37	6214	509.908258209968	13
37	6229	511.009832012885	10
37	6238	511.716435751634	6
37	6251	512.625820487682	8
37	6257	513.031747464116	3
37	6265	513.640677568032	5
37	6290	516.7	7
37	6299	517.5	7
37	6314	518.608603781957	10
37	6325	519.511673274707	8
37	6337	520.312329447368	7
37	6347	521.1168343831	7
37	6353	521.516938937849	3
37	6365	522.320110535209	7
37	6372	522.825230709795	4
37	6384	523.825940472247	9
37	6396	524.629288089725	7
37	6402	525.037651239591	3
37	6412	525.842338843114	7
37	6424	526.646088156864	7
37	6436	527.650556388379	9
37	6461	530.7	7
37	6469	531.4	6
37	6475	531.801871268092	3
37	6489	532.803946060167	9
37	6498	533.507498403977	6
37	6510	534.313999672733	7
37	6514	534.519282946992	1
37	6518	534.727111945392	1
37	6537	536.236919810811	14
37	6562	540.7	7
37	6568	541.2	4
37	6587	542.705683035673	14
37	6597	543.509210311096	7
37	6614	544.815237580345	12
37	6621	545.318039845324	4
37	6634	546.219479113121	8
37	6641	546.724316126285	4
37	6645	546.933281016333	1
37	6667	548.73478294437	17
37	6675	549.344762175168	5
37	6692	550.654273618425	12
37	6721	555.1	11
37	6730	555.9	7
37	6742	556.704316568672	7
37	6748	557.107090310211	3
37	6762	558.112478528498	9
37	6777	559.320600219473	11
37	6788	560.027762577288	6
37	6798	560.83138213673	7
37	6810	561.831821141735	9
37	6825	562.940108478165	10
37	6842	564.150074168203	11
37	6849	564.651891879012	4
37	6872	568.5	5
37	6878	569	4
37	6885	569.509668368604	4
37	6901	570.712422499798	11
37	6911	571.516415634168	7
37	6920	572.016728601175	4
37	6944	576.6	6
37	6949	577	3
37	6955	577.404283185007	3
37	6965	578.008391749693	5
37	6975	578.81143208695	7
37	6981	579.216822257292	3
37	6990	579.920689584606	6
37	7001	580.628099087146	6
37	7016	581.930271319539	12
37	7031	583.035521857497	10
37	7050	586.1	1
37	7058	586.8	6
37	7066	587.408905361788	5
37	7076	588.011418110236	5
37	7084	588.615315352917	5
37	7091	589.116694357421	4
37	7098	589.626445377252	4
37	7124	593.1	11
37	7136	594	8
37	7141	594.304515833491	2
37	7152	595.213071894535	8
37	7165	596.122028467642	8
37	7177	597.130703159345	9
37	7190	598.039991182256	8
37	7219	603.4	14
37	7229	604.1	6
37	7233	604.304788957072	1
37	7241	604.912534791297	5
37	7250	605.621302376585	6
37	7255	605.92610889913	2
37	7284	609.1	11
37	7288	609.4	2
37	7304	610.603701360886	11
37	7314	611.411369391271	7
37	7319	611.717383696407	2
37	7327	612.126272125638	3
37	7335	612.734423450208	5
37	7358	616.8	8
37	7365	617.4	5
37	7377	618.202077292576	7
37	7387	619.005834197785	7
37	7403	620.209849736966	11
37	7411	620.814182593606	5
37	7422	621.717884950006	8
37	7442	624.5	5
37	7453	625.5	9
37	7464	626.201243298116	6
37	7482	627.80419588226	15
37	7494	628.60630842791	7
37	7504	629.413067053973	7
37	7514	630.022734793151	5
37	7523	630.729021779961	6
37	7527	630.929814115963	1
37	7534	631.431575897436	4
37	7539	631.736204870724	2
37	7559	634.2	2
37	7565	634.7	4
37	7572	635.200442243055	4
37	7581	635.9079434065	6
37	7590	636.417718796573	4
37	7602	637.425716513876	9
37	7613	638.133787985521	6
37	7620	638.637406339133	4
37	7627	639.142362255917	4
37	7632	639.44605093155	2
37	7656	642.7	7
37	7661	643.1	3
37	7679	644.507463362631	13
37	7691	645.509899233171	9
37	7696	645.812783637478	2
37	7706	646.414348756454	5
37	7715	647.114884617947	6
37	7720	647.419053201928	2
37	7732	648.223506877276	7
37	7738	648.627581492497	3
37	7747	649.333163398327	6
37	7755	649.934711992528	5
37	7765	650.540271674214	5
37	7790	654.7	7
37	7800	655.6	8
37	7804	655.809738166432	1
37	7818	656.811115502048	9
37	7842	660.6	6
37	7852	661.5	8
37	7867	662.609893738287	10
37	7873	663.010978417242	3
37	7895	666.4	4
37	7900	666.8	3
37	7911	667.70327776628	8
37	7919	668.107907737292	3
37	7924	668.412132192359	2
37	7944	670.01768651695	15
37	7979	675.1	11
37	7997	676.6	14
37	8015	678.006743975391	13
37	8025	678.8155407736	7
37	8037	679.817457416692	9
37	8052	680.922593103133	10
37	8064	681.927753636131	9
37	8070	682.132053389276	1
37	8086	683.540819905082	13
37	8098	684.3434132641	7
37	8103	684.65322005647	2
37	8114	685.558946936756	8
37	8127	686.460302675735	8
37	8139	687.461111792154	9
37	8156	688.763337188286	12
37	8178	692.4	4
37	8187	693.2	7
37	8194	693.70926126155	4
37	8203	694.215809543246	4
37	8207	694.422291456925	1
37	8215	695.032234622329	5
37	8219	695.237788410147	1
37	8231	696.038734997084	7
37	8258	700.9	9
37	8264	701.4	4
37	8271	701.905465419541	4
37	8284	702.807176456003	8
37	8295	703.710171246699	8
37	8303	704.118740486985	3
37	8310	704.619045752433	4
37	8325	705.926335082887	12
37	8336	706.629305335752	6
37	8345	707.332863965624	6
37	8367	710.4	4
37	8370	710.6	1
37	8380	711.404873058386	7
37	8391	712.106209062472	6
37	8399	712.710221567679	5
37	8416	714.020129612594	12
37	8429	715.122102653747	10
37	8457	719	10
37	8464	719.6	5
37	8469	719.900513606749	2
37	8477	720.305142072683	3
37	8488	721.21371411556	8
37	8496	721.818424666708	5
37	8512	723.02748247157	11
37	8523	723.930837673904	8
37	8533	724.535896439005	5
37	8544	725.445593490844	8
37	8571	729.1	11
37	8578	729.7	5
37	8595	731.007396865719	12
37	8602	731.5088444574	4
37	8618	732.71551904388	11
37	8643	736.7	7
37	8649	737.2	4
37	8657	737.809314446724	5
37	8670	738.718631073154	8
37	8675	739.019971341554	2
37	8699	742.6	6
37	8708	743.4	7
37	8718	744.003083745322	5
37	8723	744.311207025555	2
37	8731	744.916268720371	5
37	8742	745.819573619521	8
37	8751	746.327888377813	4
37	8776	750.7	7
37	8785	751.5	7
37	8799	752.505949499204	9
37	8820	754.212052453427	16
37	8833	755.313261394848	10
37	8853	756.913500965652	15
37	8872	758.416760811086	14
37	8879	758.918536608416	4
37	8902	762.5	5
37	8910	763.2	6
37	8924	764.208959001936	9
37	8942	765.809122136065	15
37	8954	766.618394878748	7
37	8975	770.3	3
37	8981	770.8	4
37	8993	771.808629553925	9
37	9002	772.316078609655	4
37	9010	772.91737695968	5
37	9017	773.425322263776	4
37	9024	773.92907173915	4
37	9032	774.338351100496	3
37	9039	774.84328338856	4
37	9049	775.651168151606	7
37	9054	775.955909307369	2
37	9063	776.463838254346	4
37	9071	777.070755586954	5
37	9100	781.1	11
37	9113	782.1	9
37	9121	782.701540584419	5
37	9131	783.504655942222	7
37	9137	783.906783613002	3
37	9144	784.212219219094	2
37	9150	784.620206447081	3
37	9178	789	10
37	9186	789.7	6
37	9197	790.404803791355	6
37	9207	791.210960283995	7
37	9216	791.823287502152	5
37	9223	792.129866492335	2
37	9252	797.1	11
37	9266	798.2	10
37	9279	799.307630589841	10
37	9294	800.41060143683	10
37	9307	801.512950891809	10
37	9316	802.016153772127	4
37	9328	803.024103996891	9
37	9334	803.431243490008	3
37	9364	807.2	12
37	9371	807.8	5
37	9384	808.70261271242	8
37	9394	809.502819929201	7
37	9404	810.106251678631	5
37	9418	811.306881610265	11
37	9430	812.113068027662	7
37	9438	812.720493916212	5
37	9451	813.823200571913	10
37	9468	815.031431851927	11
37	9483	816.038470981168	9
37	9503	820.3	3
37	9510	820.9	5
37	9519	821.608569448136	6
37	9528	822.114888299887	4
37	9541	823.217331175838	10
37	9550	823.925210039558	6
37	9558	824.32988580592	3
37	9567	825.039152152778	6
37	9596	829.1	11
37	9612	830.4	12
37	9619	830.900631749089	4
37	9634	832.009016157485	10
37	9643	832.718030019838	6
37	9648	833.027114444959	2
37	9679	837.3	13
37	9689	838	6
37	9698	838.704836474028	6
37	9707	839.406536520719	6
37	9719	840.210001699772	7
37	9727	840.811976486527	5
37	9750	842.720230835183	18
37	9762	843.630310798033	8
37	9770	844.033130093437	3
37	9779	844.735082852699	6
37	9784	845.03816068612	2
37	9790	845.44025930284	3
37	9802	846.247781348013	7
37	9825	850.7	7
37	9836	851.7	9
37	9846	852.305222819321	5
37	9858	853.314023432239	9
37	9866	853.917790166252	5
37	9892	856.8	8
37	9911	858.4	15
37	9926	859.705003343275	12
37	9942	860.91071199865	11
37	9953	861.820656299464	8
37	9960	862.129993576995	2
37	9969	862.838607636404	6
37	9979	863.644103238838	7
37	10001	866.4	4
37	10007	866.9	4
37	10015	867.50489428448	5
37	10020	867.814890896205	2
37	10028	868.219454217739	3
37	10044	869.62345406565	13
37	10070	872.8	8
37	10086	874.1	12
37	10097	875.005829477761	8
37	10105	875.611891151619	5
37	10115	876.215519680656	5
37	10125	877.017663599432	7
37	10132	877.51808179215	4
37	10150	878.924813813776	13
37	10166	880.126674041763	11
37	10178	881.127727830706	9
37	10187	881.831240837872	6
37	10199	882.633419433247	7
37	10227	887	10
37	10235	887.7	6
37	10247	888.502740036926	7
37	10255	889.10682437213	5
37	10262	889.608933499211	4
37	10273	890.318215693093	6
37	10282	891.027794709535	6
37	10290	891.628907286199	5
37	10315	894.9	9
37	10321	895.4	4
37	10326	895.705440415791	2
37	10335	896.210156194853	4
37	10343	896.817139822995	5
37	10356	897.923781992118	10
37	10367	898.633502295948	6
37	10392	902.7	7
37	10412	904.4	16
37	10424	905.40037353964	9
37	10428	905.601627553025	1
37	10433	905.901853018078	2
37	10445	906.705952540823	7
37	10452	907.205960321545	4
37	10459	907.711733617647	4
37	10485	910.8	8
37	10488	911	1
37	10506	912.405278811152	13
37	10516	913.205302707769	7
37	10522	913.612255265735	3
37	10533	914.320786496055	6
37	10542	915.028183336892	6
37	10552	915.834569439241	7
37	10582	919.2	12
37	10600	920.7	14
37	10612	921.704017649034	9
37	10624	922.505598512701	7
37	10634	923.310358765783	7
37	10641	923.817976911441	4
37	10651	924.425250431323	5
37	10657	924.832676319303	3
37	10669	925.838217187605	9
37	10692	928.6	6
37	10699	929.10218415956	4
37	10709	929.909909933544	7
37	10716	930.219881769401	2
37	10726	930.833766380541	5
37	10730	931.040999596309	1
37	10737	931.446201570065	3
37	10752	932.456542572886	9
37	10776	936.6	6
37	10782	937.1	4
37	10791	937.805784894528	6
37	10802	938.509327599513	6
37	10815	939.617044471616	10
37	10826	940.322502076613	6
37	10838	941.323291629416	9
37	10851	942.232344854029	8
37	10862	943.134641261291	8
37	10877	944.23980865558	10
37	10884	944.740681069373	4
37	10890	945.142343213959	3
37	10898	945.743589615978	5
37	10924	948.8	8
37	10940	950.1	12
37	10945	950.409703293619	2
37	10952	950.910572485019	4
37	10959	951.417658498334	4
37	10974	952.522744304561	10
37	10980	952.932425501425	3
37	10989	953.641448339898	6
37	11018	957.3	13
37	11029	958.1	7
37	11039	958.908262659884	7
37	11044	959.218198148996	2
37	11052	959.826879084921	5
37	11069	961.13051697908	12
37	11074	961.434135633302	2
37	11089	962.535680265177	10
37	11099	963.339119151317	7
37	11106	963.847113666935	4
37	11112	964.053785402355	1
37	11118	964.45749895122	3
37	11127	965.159796091619	6
37	11136	965.865742368496	6
37	11158	968.5	5
37	11166	969.2	6
37	11181	970.303930420004	10
37	11188	970.808828472582	4
37	11195	971.31362423989	4
37	11210	972.413677562077	10
37	11215	972.715098859455	2
37	11240	976.7	7
37	11257	978.1	13
37	11266	978.806082897419	6
37	11283	980.113618764714	12
37	11293	980.921345400048	7
37	11312	982.422248991107	14
37	11333	986.4	4
37	11340	987	5
37	11348	987.608427637817	5
37	11369	989.508869829253	18
37	11379	990.30970184892	7
37	11384	990.615646192706	2
37	11388	990.821813297953	1
37	11392	991.025770691001	1
37	11401	991.73055014659	6
37	11407	992.138913288959	3
37	11414	992.642537021559	4
37	11419	992.948421837234	2
37	11427	993.549023442077	5
37	11437	994.355061058257	7
37	11443	994.76118296859	3
