version 2
run Join-80-20130520-16:33:59-32715
attr configname Join
attr datetime 20130520-16:33:59
attr experiment "\"Join\""
attr inifile omnetpp.ini
attr iterationvars $0=8192
attr iterationvars2 "$0=8192, $repetition=0"
attr measurement $0=8192
attr network Network
attr processid 32715
attr repetition 0
attr replication #0
attr resultdir results
attr runnumber 80
attr seedset 80

vector 80  Network.dyn_peer[0]  lookupHopsSig:vector  ETV
80	22268	24.216948247199	67
80	22329	29.72331283643	54
80	22347	31.128619157589	13
80	22385	34.33358778284	31
80	22457	43	50
80	22486	45.6	25
80	22540	50.20709388541	45
80	22591	54.714535641418	44
80	22621	57.31603490193	25
80	22640	58.824731411026	14
80	22841	69.7	77
80	22946	74.6	48
80	23004	77.20633083461	25
80	23054	79.510443602212	22
80	23170	84.811414161301	52
80	23208	86.412161738087	15
80	23256	88.616652577341	21
80	23292	90.119569906283	14
80	23378	94.025555220097	38
80	23476	98.426935415584	43
80	23560	102.229200168214	37
80	23630	106.8	8
80	23705	110.2	33
80	23739	111.802155092773	15
80	23789	114.004266793222	21
80	23833	116.913670504548	28
80	23875	120.519593672036	35
80	23925	124.922362751323	43
80	23964	128.223130469636	32
80	24021	133.32366377311	50
80	24041	134.924456483679	15
80	24081	138.326143030728	33
80	24109	140.727294302146	23
80	24144	143.82936214875	30
80	24191	147.936980848384	40
80	24252	153.242330902136	52
80	24298	157.24402085794	39
80	24512	165	50
80	24606	167.9	28
80	24910	177.303791313047	93
80	25012	180.504053269556	31
80	25055	181.80736239238	12
80	25118	183.714457888361	18
80	25155	184.820760843034	10
80	25265	188.224976655114	33
80	25320	190.43211496211	21
80	25428	200.7	67
80	25498	207	62
80	25537	210.302152739632	32
80	25585	214.511199122945	41
80	25606	216.217271725445	16
80	25619	217.327170180657	10
80	25729	228.4	84
80	25822	236.8	83
80	25872	241.208264740607	43
80	25919	245.317791790395	40
80	25961	248.925604410072	35
80	26086	260.029071034724	110
80	26150	265.834159087268	57
80	26245	275.1	71
80	26279	278	28
80	26321	281.808392182271	37
80	26375	286.413266248411	45
80	26390	287.714024176896	12
80	26431	291.216843535388	34
80	26453	293.022450724016	17
80	26492	296.330738171755	32
80	26588	304.939437046378	85
80	26631	308.647490486631	36
80	26659	311.047626305877	23
80	26682	312.947637470737	18
80	26720	316.151880748614	31
80	26754	319.16159879899	29
80	26826	327	50
80	26888	332.5	54
80	26962	339.107499846706	65
80	27020	344.109879258898	49
80	27043	346.01808199389	18
80	27092	350.324591846662	42
80	27149	355.433674351934	50
80	27187	360.1	21
80	27235	364.4	42
80	27279	368.204770240327	37
80	27333	373.006535222117	47
80	27350	374.308646607923	12
80	27403	379.011098893645	46
80	27475	385.411259195782	63
80	27540	392.6	46
80	27597	397.8	51
80	27637	401.202759503119	33
80	27698	406.51068877167	52
80	27726	408.916024133341	23
80	27787	414.216744151172	52
80	27843	419.225214602247	49
80	27946	430	80
80	28032	437.9	78
80	28090	442.906436211613	49
80	28158	448.909201888655	59
80	28182	450.914819437597	19
80	28226	454.723529955675	37
80	28277	459.22703358429	44
80	28345	466.6	46
80	28388	470.4	37
80	28427	473.906509073714	34
80	28456	476.214899343412	22
80	28512	481.216919993738	49
80	28585	487.718842918587	64
80	28653	493.727860899405	59
80	28670	495.034197182716	12
80	28778	504.637335671561	95
80	28888	516.4	84
80	28935	520.6	41
80	28999	526.20589725377	55
80	29039	529.806857076596	35
80	29104	535.506981736022	56
80	29172	541.50934594282	59
80	29242	547.710741585807	61
80	29324	556.1	61
80	29420	564.8	86
80	29448	567.200619605989	23
80	29487	570.505117704702	32
80	29556	576.60910852976	60
80	29597	580.114924987508	34
80	29643	584.117174509142	39
80	29668	586.218980974389	20
80	29694	588.424718069093	21
80	29711	589.928200003117	14
80	29866	597.3	53
80	29901	598.8	14
80	30070	612.109145781397	132
80	30138	618.111662256339	59
80	30150	619.119514614439	9
80	30396	633.1	111
80	30436	636.6	34
80	30457	638.308953776552	16
80	30515	643.513961444533	51
80	30582	649.418531394809	58
80	30655	655.920984775706	64
80	30686	658.425577861524	24
80	30734	665.1	31
80	30797	670.7	55
80	30852	675.609142825785	48
80	30916	681.21070696721	55
80	31021	690.511227524179	92
80	31034	691.618500515123	10
80	31050	692.819101953954	11
80	31228	708.821140271111	159
80	31319	718.7	67
80	31381	724.2	54
80	31472	732.307253656575	80
80	31489	733.813655593166	14
80	31611	745.6	96
80	31646	748.6	29
80	31667	750.305537602363	16
80	31694	752.614915319138	22
80	31713	754.119010522651	14
80	31741	756.528715912426	23
80	31750	757.229047727387	6
80	31769	758.732013529441	14
80	31778	759.4415381819	6
80	31851	767.2	52
80	31879	769.7	24
80	31940	775.009418363382	52
80	31989	779.310584047238	42
80	32025	782.315914517593	29
80	32079	787.116453453093	47
80	32094	788.22176674288	10
80	32132	791.627697007108	33
80	32187	796.336906657634	46
80	32267	805.8	58
80	32349	813.1	72
80	32423	819.706571308921	65
80	32466	823.410479395498	36
80	32535	829.511962613306	60
80	32607	835.913576947488	63
80	32648	839.423319747184	34
80	32752	848.629881791702	91
80	32814	854.038352797791	53
80	32888	860.645732092292	65
80	32958	866.85184978622	61
80	33049	874.957725752913	80
80	33101	879.566996247584	45
80	33188	887.270377535747	76
80	33325	894.9	49
80	33393	901	60
80	33432	904.301614227776	32
80	33468	907.507719420945	31
80	33482	908.51542045133	9
80	33525	912.219279826246	36
80	33558	915.126340717782	28
80	33591	919.8	18
80	33634	923.6	37
80	33652	925.006751035221	13
80	33717	930.714349299743	56
80	33783	936.523780803914	57
80	33791	937.132581321597	5
80	33830	940.435648874738	32
80	33931	949.545085562709	90
80	33992	956.1	41
80	34065	962.7	65
80	34084	964.20393518296	14
80	34106	966.010427801126	17
80	34120	967.215327543726	11
80	34146	969.420536186825	21
80	34166	971.02874648204	15
80	34186	972.630381185251	15
80	34217	977.5	15
80	34269	982	44
80	34306	985.308506750259	32
80	34390	992.714521816735	73
80	34438	996.920798410893	41
80	34454	998.128216509391	11
80	34498	1004.4	24
80	34517	1006	15
80	34546	1008.508217633657	24
80	34570	1010.514912486913	19
80	34616	1014.521753706979	39
80	34642	1016.729940149896	21
80	34713	1023.038297858471	62
80	34794	1032	60
80	34810	1033.5	14
80	34873	1039.003456686427	54
80	34900	1041.310107810652	22
80	34965	1047.010339964044	56
80	34983	1048.415048220888	13
80	35007	1050.422533153071	19
80	35046	1053.929512318895	34
80	35114	1059.931166880166	59
80	35314	1078.8	168
80	35346	1081.7	28
80	35386	1085.101396021649	33
80	35433	1089.203874123484	40
80	35450	1090.507788727654	12
80	35483	1093.410155358079	28
80	35523	1096.8146783507	33
80	35557	1099.820847180761	29
80	35597	1103.229353750332	33
80	35623	1105.429677793754	21
80	35707	1114	60
80	35753	1118.1	40
80	35780	1120.400930573665	22
80	35828	1124.600944972647	41
80	35870	1128.202365532781	35
80	35888	1129.803785114936	15
80	35953	1135.506529716221	56
80	35991	1138.711223279671	31
80	36021	1141.320740217848	25
80	36095	1147.927226790021	65
80	36140	1152.5	25
80	36189	1156.9	43
80	36220	1159.606755007563	26
80	36265	1163.515510361245	38
80	36318	1168.024811568983	44
80	36368	1172.433888880946	43
80	36413	1176.342238604661	38
80	36423	1177.149560256595	7
80	36472	1181.457833937445	42
80	36521	1185.766656000335	42
80	36594	1193.1	51
80	36619	1195.3	21
80	36698	1202.207444118664	68
80	36730	1205.017074829153	27
80	36788	1210.022872098476	49
80	36850	1215.625572004203	55
80	36872	1217.428329859072	17
80	36930	1222.434249854498	49
80	36962	1225.24376614324	27
80	36990	1227.651819726647	23
80	37023	1230.358652389393	26
80	37132	1242.5	85
80	37167	1245.7	31
80	37192	1247.800196967588	20
80	37235	1251.504974534238	36
80	37320	1259.014567783927	74
80	37394	1265.619367103828	65
80	37449	1270.321848141089	46
80	37481	1273.12462626471	27
80	37535	1277.928826496021	47
80	37597	1284	40
80	37666	1290.2	61
80	37746	1297.402279861855	71
80	37761	1298.507724542651	10
80	37882	1309.408633073906	108
80	37905	1311.318303343153	18
80	37937	1315.4	14
80	38014	1322.2	67
80	38026	1323.204048741781	9
80	38096	1329.409563551694	61
80	38168	1335.813217989969	63
80	38190	1337.618991569733	17
80	38229	1340.92712881777	32
80	38312	1348.236947236883	72
80	38423	1358.144980504927	98
80	38578	1374.5	125
80	38611	1377.5	29
80	38630	1379.008630606231	14
80	38652	1380.815479923125	17
80	38673	1382.521482010627	16
80	38693	1384.127062013155	15
80	38738	1388.036569625142	38
80	38759	1389.93866701422	18
80	38814	1394.640454484254	46
80	38872	1399.8425775695	51
80	38927	1404.549785853374	46
80	38982	1411.5	35
80	39014	1414.2	26
80	39051	1417.500243507926	32
80	39075	1419.500253879478	19
80	39113	1422.709888553823	31
80	39144	1425.417806383723	26
80	39151	1425.921083072528	4
80	39250	1435.8	78
80	39278	1438.1	22
80	39294	1439.507205505152	13
80	39371	1446.21527976145	66
80	39411	1449.820951146967	35
80	39449	1453.023773901978	31
80	39495	1457.030173947837	39
80	39541	1461.038191277757	39
80	39583	1464.64157959171	35
80	39652	1470.744963881076	60
80	39686	1473.752419165592	29
80	39746	1478.95841206328	51
80	39810	1486.2	42
80	39862	1490.9	46
80	39905	1494.600955414474	36
80	39997	1502.806602357416	81
80	40046	1507.116017569265	42
80	40075	1509.617451735822	24
80	40102	1511.923494914393	22
80	40144	1515.526773379244	35
80	40238	1523.933847521349	83
80	40304	1529.738184886061	57
80	40418	1535.7	37
80	40576	1543	72
80	40692	1548.206677921107	51
80	40767	1551.615237557638	33
80	40852	1555.521765910795	38
80	40982	1561.330795390473	57
80	41277	1571.3	73
80	41378	1575.7	43
80	41528	1582.401298824315	66
80	41592	1586.307720356121	38
80	41657	1592.008951529574	56
80	41718	1597.518870670248	54
80	41853	1604.6	46
80	41978	1610.5	58
80	42055	1614.00861919037	34
80	42083	1615.317363885759	12
80	42126	1618.518386417784	31
80	42176	1622.924799344195	43
80	42230	1627.725520343491	47
80	42278	1631.93324828849	41
80	42319	1635.439711425458	34
80	42398	1642.347934168083	68
80	42407	1643.049310996967	6
80	42447	1646.452088350883	33
80	42498	1650.952442827603	44
80	42576	1659.7	57
80	42608	1662.4	26
80	42683	1669.103357101171	66
80	42754	1675.410291822247	62
80	42805	1679.913445971467	44
80	42843	1683.121459284064	31
80	42915	1689.531206329662	63
80	42950	1692.439367754996	28
80	42961	1693.339647952361	8
80	43012	1699.1	31
80	43068	1704	48
80	43093	1706.104387369567	20
80	43145	1710.710829981543	45
80	43211	1716.511302962329	57
80	43342	1724.3	43
80	43393	1726.6	22
80	43475	1730.30817098221	36
80	43538	1733.213525007026	28
80	43596	1735.822738662833	25
80	43652	1738.327377928959	24
80	43698	1741.530372950895	31
80	43743	1745.431061087438	38
80	43790	1749.53172523137	40
80	43837	1753.635443531903	40
80	43881	1757.442508728077	37
80	43954	1763.944411018494	64
80	43999	1767.850734501796	38
80	44065	1774.5	45
80	44117	1779.2	46
80	44122	1779.508600486388	2
80	44138	1780.717619652484	11
80	44189	1785.220532499576	44
80	44194	1785.524176555423	2
80	44209	1786.630247811612	10
80	44245	1789.838063142108	31
80	44303	1794.840838508726	49
80	44359	1799.84414120481	49
80	44424	1805.550516296938	56
80	44457	1808.258470785164	26
80	44534	1813.9	19
80	44563	1815.2	12
80	44675	1820.201681734609	49
80	44779	1825.105444161304	48
80	44825	1827.111776217593	19
80	44951	1832.718435180725	55
80	44975	1833.82035401903	10
80	45015	1835.620637476536	17
80	45059	1837.629385786395	19
80	45117	1840.13419549254	24
80	45471	1857.9	139
80	45523	1860.6	26
80	45586	1866.102931314224	54
80	45627	1869.811448893751	36
80	45772	1882.721155704854	128
80	45805	1885.623540015621	28
80	45866	1890.933211784521	52
80	45889	1892.834863088887	18
80	45924	1895.935370683441	30
80	45975	1900.24228386429	42
80	46027	1904.851458940204	45
80	46054	1907.160778545854	22
80	46119	1912.862014977427	56
80	46211	1917.1	11
80	46327	1920.7	35
80	46339	1921.008956633317	2
80	46532	1927.011254978181	59
80	46756	1934.01143868326	69
80	46936	1940.714857426688	66
80	47000	1943.720288466864	29
80	47140	1950.126309015836	63
80	47234	1956.531501432928	63
80	47255	1958.238726376107	16
80	47296	1961.944485608267	36
80	47436	1968.9	49
80	47496	1971.7	27
80	47517	1973.300953973045	15
80	47574	1978.204734420743	48
80	47603	1980.708403865172	24
80	47634	1983.409742601689	26
80	47671	1986.513743115996	30
80	47715	1990.316667582862	37
80	47755	1993.926346081277	35
80	47842	2001.632887229121	76
80	47962	2013.6	96
80	48022	2018.9	52
80	48130	2028.502628635002	95
80	48184	2033.309980684285	47
80	48200	2034.516242741454	11
80	48265	2040.217630139941	56
80	48384	2050.926726221388	106
80	48573	2061.2	72
80	48678	2066.6	53
80	48725	2070.707782026871	40
80	48747	2072.50906399005	17
80	48766	2074.016193528912	14
80	48813	2078.124897224976	40
80	48832	2079.832847873464	16
80	48867	2082.741920134364	28
80	48931	2087.4	14
80	49041	2092.4	49
80	49091	2094.705937768383	22
80	49207	2099.912421914878	51
80	49301	2104.118181349366	41
80	49337	2105.822852873046	16
80	49438	2110.628148548759	47
80	49536	2119.434773653976	87
80	49626	2125.9	39
80	49667	2129.5	35
80	49694	2131.80813978312	22
80	49756	2137.211655684028	53
80	49809	2141.91260154313	46
80	49862	2146.420308073722	44
80	49904	2150.027299291815	35
80	49982	2157.0345336135	69
80	50025	2160.742417806928	36
80	50059	2163.745264968456	29
80	50121	2170.2	42
80	50181	2175.7	54
80	50263	2182.901104033044	71
80	50297	2185.907139900049	29
80	50377	2193.8	58
80	50396	2195.4	15
80	50414	2196.80232466357	13
80	50511	2205.507358960713	86
80	50550	2208.813299157313	32
80	50588	2212.014375678639	31
80	50613	2214.115286409673	20
80	50641	2216.522272260677	23
80	50663	2218.330180201948	17
80	50709	2222.336470610795	39
80	50805	2233.2	72
80	50861	2238.1	48
80	50876	2239.404300957159	12
80	50934	2244.412361083077	49
80	50979	2248.321700836752	38
80	51025	2252.327955467169	39
80	51062	2255.630448443765	32
80	51151	2264.8	68
80	51176	2267	21
80	51220	2270.801193790277	37
80	51244	2272.801592076089	19
80	51279	2275.906752677104	30
80	51381	2284.906785382275	89
80	51423	2288.508101407029	35
80	51456	2291.413685014779	28
80	51490	2294.220233970827	27
80	51505	2295.526185206512	12
80	51536	2298.030916664779	24
80	51568	2300.834962986758	27
80	51597	2303.340979019283	24
80	51652	2306.9	9
80	51728	2310.4	34
80	51808	2314.101447643702	36
80	51910	2318.705975901255	45
80	51960	2320.90756587222	21
80	52038	2324.515308865613	35
80	52134	2328.924883909427	43
80	52318	2338.5	65
80	52341	2339.5	9
80	52357	2340.104482615494	5
80	52371	2340.704634495835	5
80	52471	2345.310682292097	45
80	52489	2346.014798740817	6
80	52603	2351.419537063439	53
80	52656	2355.425271634499	39
80	52676	2357.026330377273	15
80	52703	2359.334630750789	22
80	52719	2360.53560517428	11
80	52753	2363.536490555582	29
80	52802	2367.837193079038	42
80	52900	2376.441003688819	85
80	53007	2388.1	81
80	53035	2390.6	24
80	53044	2391.308938327936	6
80	53157	2401.40992518619	100
80	53206	2405.716274757269	42
80	53258	2410.125229973532	43
80	53286	2412.533113156044	23
80	53313	2414.839814995754	22
80	53394	2423.9	59
80	53410	2425.2	12
80	53478	2431.205376803628	59
80	53544	2437.006658893879	57
80	53584	2440.407153994717	33
80	53606	2442.21692662299	17
80	53664	2447.426711435565	51
80	53686	2449.229104274818	17
80	53709	2451.138084469013	18
80	53726	2452.44585533958	12
80	53746	2454.047615006673	15
80	53786	2457.648397838589	35
80	53818	2460.253429497968	25
80	53862	2466.5	25
80	53885	2468.5	19
80	53905	2470.10170199796	15
80	53938	2473.007176537135	28
80	54024	2480.615798268589	75
80	54056	2483.417157601598	27
80	54130	2491.2	52
80	54169	2494.6	33
80	54190	2496.301026720369	16
80	54248	2501.51011829031	51
80	54335	2509.219609080001	76
80	54384	2513.522426927427	42
80	54432	2518.8	28
80	54500	2524.9	60
80	54599	2533.804749351192	88
80	54672	2540.109843190381	62
80	54741	2546.212127133632	60
80	54788	2550.31217380777	40
80	54857	2556.421831315737	60
80	54926	2562.529990086443	60
80	54961	2565.633161251441	30
80	55234	2580.1	121
80	55322	2588	78
80	55330	2588.609480067773	5
80	55427	2597.31289528707	86
80	55456	2599.820907082624	24
80	55491	2602.722744944667	28
80	55552	2608.023182832886	52
80	55598	2612.031044101781	39
80	55659	2617.53245134953	54
80	55712	2622.035819469893	44
80	55759	2628.8	28
80	55788	2631.4	25
80	55817	2633.905390656192	24
80	55848	2636.412296268513	24
80	55869	2638.114446154338	16
80	55962	2646.423558268343	82
80	55982	2648.026352040563	15
80	56030	2652.227835721641	41
80	56052	2654.037816874442	17
80	56071	2655.741965304653	16
80	56121	2661.1	31
80	56150	2663.7	25
80	56179	2666.006283117479	22
80	56235	2671.011157030351	49
80	56275	2674.412962319813	33
80	56303	2676.818515189666	23
80	56391	2684.625084070913	77
80	56449	2689.832798964635	51
80	56479	2692.239247599139	23
80	56514	2695.342599766854	30
80	56541	2697.644944885595	22
80	56560	2699.147806914998	14
80	56671	2709.053342221062	98
80	56737	2714.855707884809	57
80	56780	2718.563250144211	36
80	56810	2721.165496628117	25
80	56838	2723.571060288604	23
80	56874	2726.575128294585	29
80	56964	2734.583395249167	79
80	57066	2745.8	78
80	57120	2750.5	46
80	57188	2756.503070794765	59
80	57285	2765.211767682393	86
80	57308	2767.121145560652	18
80	57349	2770.622577172502	34
80	57379	2773.223111392555	25
80	57403	2775.227811624591	19
80	57432	2777.728402455271	24
80	57448	2778.93838646333	11
80	57497	2785	30
80	57532	2788	29
80	57566	2791.008357940842	29
80	57602	2794.015974007348	29
80	57650	2798.218475407235	41
80	57683	2801.122130117948	28
80	57750	2807.02232130982	58
80	57818	2814.9	49
80	57846	2817.4	24
80	57940	2825.800739473334	83
80	57974	2828.609027467334	27
80	58018	2832.410295597437	37
80	58061	2836.117761053567	36
80	58076	2837.418430107632	12
80	58092	2838.627252174469	11
80	58116	2842.8	8
80	58146	2845.5	26
80	58208	2850.901510674725	53
80	58249	2854.403640990045	34
80	58306	2859.506534698498	50
80	58388	2866.710432891312	71
80	58453	2872.417777592881	56
80	58518	2880.6	46
80	58586	2886.7	60
80	58638	2891.301806750253	45
80	58694	2896.103266369034	47
80	58733	2899.611656354879	34
80	58800	2905.519536827624	58
80	58859	2910.625036991567	50
80	58946	2920.6	66
80	59008	2926.1	54
80	59048	2929.709325163636	35
80	59106	2934.712322924364	49
80	59162	2939.716499735644	49
80	59217	2944.417780218716	46
80	59240	2946.320465535805	18
80	59270	2948.923171686536	25
80	59294	2950.929137818437	19
80	59339	2954.830268172257	38
80	59373	2957.835983834684	29
80	59403	2960.237750301799	23
80	59434	2962.945246025882	26
80	59478	2966.747080897215	37
80	59715	2979.4	94
80	59826	2984.4	49
80	59943	2989.804874502876	53
80	59986	2993.51364209599	36
80	60017	2996.023280050171	24
80	60060	2999.926237995446	38
80	60137	3006.628229125135	66
80	60191	3011.43081964866	47
80	60214	3013.331519579032	18
80	60276	3018.735775987365	53
80	60327	3023.239817642393	44
80	60376	3027.545674060809	42
80	60423	3031.652496422545	40
80	60464	3035.15630735828	34
80	60530	3040.95904573124	57
80	60636	3047.6	36
80	60687	3052	43
80	60729	3055.804942057575	37
80	60790	3061.113526311442	52
80	60849	3066.215852521625	50
80	60894	3070.120683619333	38
80	60933	3073.628612259458	34
80	60973	3077.034061908302	33
80	60998	3079.136324424489	20
80	61062	3084.742783064543	55
80	61235	3094.4	64
80	61270	3096	15
80	61309	3097.807645262179	17
80	61347	3099.408393585804	15
80	61385	3101.112414524667	16
80	61431	3103.21415789098	20
80	61601	3111.022497478413	77
80	61749	3118.9	49
80	61795	3122.4	34
80	61843	3126.608970518941	41
80	61864	3128.31664772168	16
80	61942	3135.31771295298	69
80	61971	3137.819857597422	24
80	61999	3140.023741566577	21
80	62019	3141.830639692876	17
80	62064	3145.732338136223	38
80	62098	3148.539314256008	27
80	62145	3152.643445896269	40
80	62185	3158.2	22
80	62251	3164.1	58
80	62311	3169.50946634955	53
80	62397	3177.116708182627	75
80	62428	3179.820401135859	26
80	62649	3190.6	86
80	62710	3193.4	27
80	62828	3198.805448606698	53
80	62880	3201.108910925471	22
80	62920	3202.91821711808	17
80	62964	3204.82435531934	18
80	62988	3206.825795296402	19
80	63012	3208.826264651861	19
80	63038	3211.02793421478	21
80	63071	3213.935345419105	28
80	63112	3218.2	22
80	63172	3223.7	54
80	63247	3230.20415196046	64
80	63274	3232.510621250863	22
80	63333	3237.819436154451	52
80	63355	3239.628554822738	17
80	63370	3240.736700636705	10
80	63454	3248.137192225796	73
80	63538	3256	40
80	63639	3265.2	91
80	63661	3267.009488597034	17
80	63667	3267.413170725294	3
80	63685	3268.818751158349	13
80	63735	3273.220839885552	43
80	63759	3275.223791716883	19
80	63802	3278.926230160763	36
80	63822	3280.530794385791	15
80	63831	3281.231842952629	6
80	63979	3294.433551297397	131
80	63999	3296.037038273389	15
80	64039	3299.644299783619	35
80	64057	3301.044800103514	13
80	64068	3301.947915781678	8
80	64113	3305.852724441345	38
80	64148	3309.7	17
80	64260	3319.8	100
80	64316	3324.600169631144	47
80	64330	3325.808714474357	11
80	64343	3326.715922779372	8
80	64404	3332.021070358344	52
80	64485	3339.322689791878	72
80	64505	3340.927103690227	15
80	64545	3344.328670214599	33
80	64676	3352.4	44
80	64761	3356.2	37
80	64791	3357.604603298187	13
80	64824	3359.012919041706	13
80	64902	3362.716727392287	36
80	64944	3366.318649028399	35
80	64971	3368.627450036941	22
80	65060	3378.8	68
80	65131	3385.2	63
80	65158	3387.508578902049	22
80	65257	3396.212159472267	86
80	65279	3398.014194221164	17
80	65315	3401.223318129664	31
80	65327	3402.033087537733	7
80	65431	3411.438343144522	93
80	65556	3423.9	99
80	65600	3427.8	38
80	65624	3429.802644537682	19
80	65667	3433.509766000687	36
80	65706	3436.81837042616	32
80	65729	3438.720658670684	18
80	65792	3444.221886672965	54
80	65849	3449.326244814976	50
80	65867	3450.731781472175	13
80	65897	3453.332100511738	25
80	65946	3457.641857909827	42
80	65969	3459.544697391764	18
80	65997	3461.952520870981	23
80	66024	3464.056108172335	20
80	66053	3466.563307513123	24
80	66097	3470.372518471564	37
80	66145	3476.9	29
80	66167	3478.8	18
80	66177	3479.603248979898	7
80	66238	3484.907927095472	52
80	66267	3487.412582567663	24
80	66326	3492.522138525492	50
80	66394	3498.526611127324	59
80	66439	3504.8	28
80	66495	3509.9	50
80	66545	3514.109000475099	41
80	66597	3518.715139907102	45
80	66625	3521.122213054645	23
80	66665	3524.530822635599	33
80	66713	3528.731652392191	41
80	66791	3537.6	56
80	66859	3543.7	60
80	66900	3547.208050042947	34
80	66957	3552.112420157412	48
80	67097	3564.716526446611	125
80	67130	3567.622178868158	28
80	67204	3574.027724715362	63
80	67256	3578.636142843561	45
80	67309	3583.345889392799	46
80	67342	3586.05344014989	26
80	67370	3588.454652784182	23
80	67426	3593.456882334814	49
80	67623	3600.4	44
80	67712	3603.8	33
80	67818	3608.504259801164	46
80	67908	3612.612608631895	40
80	68113	3621.8	58
80	68170	3624.3	24
80	68204	3625.905232203244	15
80	68224	3626.713425070813	7
80	68370	3633.323420224506	65
80	68392	3634.229621057847	8
80	68557	3642.831845917784	85
80	68638	3649.5	35
80	68696	3654.6	50
80	68758	3660.005196958112	53
80	68827	3666.110576354095	60
80	68856	3668.610786526631	24
80	68903	3672.715791380821	40
80	68934	3675.421888010675	26
80	68976	3680.2	22
80	69003	3682.6	23
80	69030	3684.90162518522	22
80	69074	3688.703898565282	37
80	69083	3689.404059973754	6
80	69124	3692.910937620267	34
80	69148	3694.918509652813	19
80	69179	3697.62602092888	26
80	69216	3700.732761510554	30
80	69257	3704.240089866979	34
80	69380	3711.9	39
80	69492	3717	50
80	69528	3720.006841522662	29
80	69584	3725.009530997983	49
80	69621	3728.117417552255	30
80	69662	3731.826741068358	36
80	69712	3736.027255592306	41
80	69741	3738.528264409812	24
80	69808	3744.43690828806	58
80	69968	3751.2	32
80	70001	3752.2	9
80	70143	3757.200212093619	49
80	70225	3760.904365792958	36
80	70327	3765.614269752159	46
80	70377	3767.818399865737	21
80	70487	3772.822994482256	49
80	70550	3777.131040637399	42
80	70582	3779.940367342251	27
80	70639	3784.843362754384	48
80	70695	3789.849092361161	49
80	70731	3792.858130133545	29
80	70752	3794.565128125363	16
80	70845	3802.865190038535	82
80	70922	3811.5	55
80	70977	3816.3	47
80	71044	3822.206159439203	58
80	71094	3826.613772798953	43
80	71152	3831.819315862506	51
80	71190	3835.022359639091	31
80	71238	3839.224018042529	41
80	71306	3845.228032384928	59
80	71325	3846.732571619847	14
80	71387	3852.132792369488	53
80	71418	3854.837783831511	26
80	71466	3859.045012242765	41
80	71542	3867.6	56
80	71565	3869.6	19
80	71591	3871.802031365628	21
80	71764	3887.305159484701	154
80	71809	3891.212975163302	38
80	71872	3896.718140648191	54
80	71915	3900.422185541886	36
80	72002	3908.131746864718	76
80	72015	3909.23889873626	10
80	72039	3911.245050268751	19
80	72092	3915.946613560517	46
80	72165	3922.251640299912	62
80	72323	3931.8	58
80	72433	3936.9	50
80	72522	3942.10461315493	51
80	72547	3944.206919087943	20
80	72575	3946.609059984489	23
80	72608	3949.511244243072	28
80	72649	3953.020411389165	34
80	72688	3956.328348367926	32
80	72727	3959.836461402219	34
80	72783	3964.636604867057	47
80	72955	3974.3	63
80	73077	3980.9	65
80	73106	3983.409383285781	24
80	73125	3984.912850600555	14
80	73144	3986.418944454281	14
80	73166	3988.224327044609	17
80	73220	3993.027211548642	47
80	73309	4000.933390690388	78
80	73338	4003.438436721516	24
80	73525	4013	70
80	73572	4015.2	21
80	73672	4019.701092113347	44
80	73736	4022.607296789479	28
80	73786	4024.915763829422	22
80	73824	4026.922342414797	19
80	73866	4030.528722187831	35
80	73910	4034.337506712992	37
80	73949	4037.845790800908	34
80	73986	4040.953387705869	30
80	74009	4042.854934503281	18
80	74088	4048.2	22
80	74141	4051.9	36
80	74185	4056.100638957114	41
80	74206	4058.001211897467	18
80	74273	4064.507074719217	64
80	74307	4067.714877968811	31
80	74384	4075.220892124975	74
80	74431	4079.724182700168	44
80	74458	4082.226089502058	24
80	74491	4085.32755253052	30
