version 2
run Join-2-20130520-16:32:10-32715
attr configname Join
attr datetime 20130520-16:32:10
attr experiment "\"Join\""
attr inifile omnetpp.ini
attr iterationvars $0=32
attr iterationvars2 "$0=32, $repetition=2"
attr measurement $0=32
attr network Network
attr processid 32715
attr repetition 2
attr replication #2
attr resultdir results
attr runnumber 2
attr seedset 2

vector 2  Network.dyn_peer[0]  lookupHopsSig:vector  ETV
2	287	20.4	4
2	291	20.7	2
2	298	21.202930232323	4
2	306	21.807190457593	5
2	329	24.5	5
2	332	24.7	1
2	337	25.00045678965	2
2	341	25.209783075258	1
2	347	25.619614609677	3
2	355	26.026726782085	3
2	359	26.231140331263	1
2	378	30.1	1
2	381	30.3	1
2	387	30.705536338458	3
2	391	30.908133785972	1
2	396	31.213870210955	2
2	405	31.917739109795	6
2	413	32.321678442708	3
2	419	32.729998611707	3
2	424	33.039264079191	2
2	445	36.3	3
2	450	36.7	3
2	456	37.10013017338	3
2	461	37.403687709618	2
2	480	40.1	1
2	484	40.4	2
2	490	40.805826848889	3
2	496	41.214609851775	3
2	501	41.514865361226	2
2	507	41.918498620139	3
2	514	42.225120640359	2
2	535	46.3	3
2	538	46.5	1
2	544	46.909144755718	3
2	548	47.113293814051	1
2	554	47.521557494108	3
2	559	47.825066213129	2
2	566	48.129183677535	2
2	571	48.434693456583	2
2	577	48.841001883144	3
2	595	52.2	2
2	598	52.4	1
2	604	52.803132585228	3
2	609	53.112757180984	2
2	615	53.513175158052	3
2	619	53.71964530031	1
2	627	54.127029297857	3
2	648	58.3	3
2	652	58.6	2
2	660	59.202293859641	5
2	665	59.50646139401	2
2	670	59.815253414313	2
2	676	60.02169183361	1
2	697	64.3	3
2	701	64.6	2
2	706	64.905321444408	2
2	711	65.214137966697	2
2	715	65.423820872419	1
2	720	65.731600953997	2
2	730	66.337350489373	5
2	767	70.4	4
2	772	70.8	3
2	778	71.201065725337	3
2	784	71.606499177666	3
2	808	74.6	6
2	817	75.308072111408	6
2	823	75.621975163021	2
2	827	75.825437542146	1
2	834	76.13098293688	2
2	857	80.5	5
2	864	81.1	5
2	869	81.4041973546	2
2	875	81.813973688508	3
2	896	84.3	3
2	901	84.7	3
2	905	84.908262498266	1
2	914	85.615590723141	6
2	924	86.032557215324	3
2	945	90.3	3
2	950	90.7	3
2	955	90.908692263617	1
2	962	91.412664803539	4
2	985	94.5	5
2	988	94.7	1
2	993	95.001866271439	2
2	999	95.406503697518	3
2	1004	95.707609528976	2
2	1011	96.016132418578	2
2	1017	96.418873011148	3
2	1038	100.3	3
2	1042	100.6	2
2	1047	100.900928962659	2
2	1053	101.303880685716	3
2	1057	101.505631849606	1
2	1079	104.4	4
2	1084	104.8	3
2	1090	105.20283755806	3
2	1096	105.610685477288	3
2	1115	108.1	1
2	1118	108.3	1
2	1124	108.704714098584	3
2	1129	108.910472908232	1
2	1133	109.119169994443	1
2	1138	109.427621125645	2
2	1158	112.2	2
2	1163	112.6	3
2	1168	112.807375298852	1
2	1173	113.110726245494	2
2	1177	113.317159359766	1
2	1200	116.5	5
2	1203	116.7	1
2	1209	117.108365176513	3
2	1215	117.510539200738	3
2	1236	120.3	3
2	1239	120.5	1
2	1243	120.70623272333	1
2	1247	120.914221578472	1
2	1256	121.617084270989	6
2	1264	122.017396746602	3
2	1268	122.225524566118	1
2	1288	126.2	2
2	1292	126.5	2
2	1297	126.800875625091	2
2	1301	127.001036727742	1
2	1307	127.40134262252	3
2	1329	130.4	4
2	1333	130.7	2
2	1338	131.009106555168	2
2	1343	131.309628782411	2
2	1364	134.3	3
2	1367	134.5	1
2	1375	135.103582403077	5
2	1382	135.507723761954	3
2	1386	135.714408032448	1
2	1408	138.4	4
2	1411	138.6	1
2	1417	139.002703539694	3
2	1421	139.207027430697	1
2	1439	142	0
2	1444	142.4	3
2	1448	142.605871742013	1
2	1453	142.912024287717	2
2	1458	143.221944130207	2
2	1463	143.531480729849	2
2	1484	146.3	3
2	1488	146.6	2
2	1494	146.912984946356	2
2	1499	147.217835484018	2
2	1503	147.422281226645	1
2	1508	147.729719846945	2
2	1515	148.034796021771	2
2	1519	148.242337831295	1
2	1523	148.447595163817	1
2	1544	152.3	3
2	1549	152.7	3
2	1557	153.30185589736	5
2	1562	153.606358169155	2
2	1568	153.91475879848	2
2	1575	154.214858517539	2
2	1580	154.426364807208	1
2	1602	158.4	4
2	1607	158.8	3
2	1613	159.209567475975	3
2	1618	159.511999143864	2
2	1624	159.915317880969	3
2	1631	160.22211815351	2
2	1636	160.526932735087	2
2	1640	160.733704132516	1
2	1645	161.041187872501	2
2	1649	161.250046146512	1
2	1671	164.4	4
2	1679	165.00848684519	5
2	1683	165.21142428253	1
2	1689	165.615869991941	3
2	1709	168.2	2
2	1715	168.7	4
2	1719	168.901648671424	1
2	1725	169.301900685659	3
2	1730	169.519579724121	1
2	1750	172.2	2
2	1755	172.6	3
2	1760	172.908419976839	2
2	1765	173.211252564309	2
2	1774	173.813579036565	5
2	1782	174.214256388956	3
2	1786	174.418139730735	1
2	1808	178.4	4
2	1812	178.7	2
2	1817	179.007697369682	2
2	1821	179.21686451584	1
2	1826	179.521278402098	2
2	1832	179.9283010445	3
2	1852	182.2	2
2	1856	182.5	2
2	1862	182.909647806547	3
2	1866	183.111836014375	1
2	1870	183.319639033082	1
2	1874	183.519685668289	1
2	1878	183.723945415786	1
2	1882	183.928123778249	1
2	1890	184.237218520835	2
2	1910	188.2	2
2	1913	188.4	1
2	1917	188.607826330179	1
2	1922	188.916249660618	2
2	1944	192.4	4
2	1949	192.8	3
2	1953	193.003438398952	1
2	1958	193.311598590495	2
2	1963	193.617356380484	2
2	1967	193.818670326558	1
2	1988	196.3	3
2	1994	196.8	4
2	1999	197.100975480705	2
2	2003	197.30964929612	1
2	2009	197.711912257714	3
2	2016	198.019835559877	2
2	2021	198.32844583665	2
2	2026	198.631935853066	2
2	2032	199.034744452971	3
2	2037	199.34043585831	2
2	2059	202.5	5
2	2065	202.903258462664	3
2	2072	203.405316399442	4
2	2077	203.712886445837	2
2	2085	204.024285244299	2
2	2090	204.332319385954	2
2	2110	208.2	2
2	2114	208.5	2
2	2119	208.808661802418	2
2	2123	209.013012638911	1
2	2128	209.224961444762	1
2	2133	209.532521574833	2
2	2154	212.3	3
2	2159	212.7	3
2	2168	213.224701718026	4
2	2174	213.625105915895	3
2	2185	214.232365526767	5
2	2193	214.646900532708	3
2	2216	218.5	5
2	2222	219	4
2	2229	219.50148676326	4
2	2234	219.807911287515	2
2	2241	220.108043657852	2
2	2245	220.311912661302	1
2	2265	224.2	2
2	2269	224.5	2
2	2273	224.704256392444	1
2	2278	225.006039490703	2
2	2284	225.415683459691	3
2	2288	225.623500053982	1
2	2292	225.825326917333	1
2	2311	228.1	1
2	2315	228.4	2
2	2320	228.706923992428	2
2	2326	229.113434914328	3
2	2331	229.423239765105	2
2	2336	229.729650930723	2
2	2357	232.3	3
2	2362	232.7	3
2	2368	233.107623352478	3
2	2372	233.312164135537	1
2	2377	233.613364533459	2
2	2381	233.815120980321	1
2	2401	236.2	2
2	2407	236.7	4
2	2411	236.901257813868	1
2	2415	237.105167556488	1
2	2435	240.2	2
2	2438	240.4	1
2	2442	240.601757241894	1
2	2449	241.012285136799	3
2	2469	244.2	2
2	2473	244.5	2
2	2477	244.704244093648	1
2	2483	245.110662211291	3
2	2488	245.417841559461	2
2	2493	245.627232073932	1
2	2498	245.837896615228	1
2	2506	246.238914063345	3
2	2525	250.1	1
2	2529	250.4	2
2	2535	250.804061784318	3
2	2540	251.112914421099	2
2	2546	251.513517497127	3
2	2551	251.823348880797	2
2	2573	254.4	4
2	2578	254.8	3
2	2583	255.108835216886	2
2	2587	255.309713092459	1
2	2608	258.3	3
2	2611	258.5	1
2	2616	258.802179073214	2
2	2622	259.207323093775	3
2	2626	259.415672752314	1
2	2630	259.621762053868	1
2	2649	262.1	1
2	2656	262.7	5
2	2660	262.905890971098	1
2	2664	263.115779592049	1
2	2687	266.5	5
2	2691	266.8	2
2	2696	267.109705477531	2
2	2700	267.31664700298	1
2	2705	267.621970852039	2
2	2714	268.129307550003	4
2	2736	272.4	4
2	2741	272.8	3
2	2747	273.202799071576	3
2	2751	273.411321700838	1
2	2757	273.817987241829	3
2	2764	274.12439662823	2
2	2786	278.4	4
2	2789	278.6	1
2	2795	279.000227165841	3
2	2801	279.403759304799	3
2	2805	279.604294206543	1
2	2810	279.90594199277	2
2	2833	282.5	5
2	2836	282.7	1
2	2841	283.002363872169	2
2	2846	283.307630256413	2
2	2851	283.61490053939	2
2	2859	284.019535031968	3
2	2863	284.221577257234	1
2	2882	288.1	1
2	2888	288.6	4
2	2893	288.904026379252	2
2	2897	289.106522076131	1
2	2917	292.2	2
2	2921	292.5	2
2	2925	292.708929058781	1
2	2933	293.218667140758	4
2	2937	293.420809569546	1
2	2941	293.624538498386	1
2	2946	293.931332712513	2
2	2953	294.232291445687	2
2	2975	298.4	4
2	2980	298.8	3
2	2984	299.004163131883	1
2	2990	299.407875843608	3
2	2994	299.609207473924	1
2	2999	299.916497481964	2
2	3018	302.1	1
2	3027	302.808367435294	6
2	3033	303.217179788304	3
2	3038	303.521309954705	2
2	3060	306.4	4
2	3065	306.8	3
2	3070	307.109671131318	2
2	3076	307.511976587445	3
2	3082	307.918657580789	3
2	3092	308.432746874496	4
2	3111	312.1	1
2	3114	312.3	1
2	3121	312.809597059953	4
2	3126	313.119117166948	2
2	3131	313.427796351638	2
2	3150	316.1	1
2	3154	316.4	2
2	3159	316.700434896999	2
2	3164	317.004919031606	2
2	3170	317.407394540367	3
2	3191	320.3	3
2	3195	320.6	2
2	3200	320.903268717622	2
2	3205	321.206843899932	2
2	3210	321.515496853363	2
2	3215	321.815591357093	2
2	3234	324.1	1
2	3239	324.5	3
2	3245	324.907489650365	3
2	3250	325.209196505652	2
2	3254	325.414264224039	1
2	3259	325.717714023671	2
2	3267	326.121648065898	3
2	3289	330.4	4
2	3294	330.8	3
2	3300	331.200979603931	3
2	3306	331.60867794583	3
2	3327	334.3	3
2	3332	334.7	3
2	3338	335.015392943983	2
2	3344	335.320841606704	2
2	3350	335.725483730155	3
2	3358	336.134694171528	3
2	3379	340.3	3
2	3385	340.8	4
2	3390	341.103235285156	2
2	3398	341.607374867621	4
2	3402	341.816338915309	1
2	3425	344.5	5
2	3431	345	4
2	3436	345.30689251875	2
2	3444	345.81986160525	4
2	3451	346.127604979408	2
2	3458	346.630720273452	4
2	3463	346.937939183584	2
2	3469	347.346742173102	3
2	3473	347.55530448147	1
2	3494	350.3	3
2	3497	350.5	1
2	3501	350.705231693279	1
2	3506	351.008416949684	2
2	3510	351.211667517718	1
2	3514	351.418182456117	1
2	3519	351.727480360361	2
2	3542	354.5	5
2	3546	354.8	2
2	3553	355.30051894152	4
2	3558	355.610061827876	2
2	3563	355.916609908378	2
2	3572	356.416634732601	4
2	3577	356.722771046932	2
2	3583	357.127692237898	3
2	3603	360.2	2
2	3608	360.6	3
2	3614	361.002858634118	3
2	3619	361.305308575497	2
2	3624	361.611621249468	2
2	3644	364.2	2
2	3648	364.5	2
2	3653	364.80332759954	2
2	3657	365.00813483176	1
2	3678	368.3	3
2	3682	368.6	2
2	3687	368.900328539335	2
2	3693	369.309777285277	3
2	3699	369.625384492114	2
2	3708	370.12966989491	4
2	3727	374.1	1
2	3733	374.6	4
2	3738	374.901001180724	2
2	3742	375.101985866964	1
2	3748	375.509188033422	3
2	3754	375.918226495052	3
2	3774	378.2	2
2	3780	378.7	4
2	3786	379.106415728691	3
2	3791	379.408363671975	2
2	3795	379.610343670883	1
2	3819	382.6	6
2	3822	382.8	1
2	3828	383.112930654326	2
2	3832	383.321062471469	1
2	3836	383.5250305323	1
2	3842	383.928296415302	3
2	3849	384.236103990524	2
2	3870	388.3	3
2	3874	388.6	2
2	3878	388.809643668355	1
2	3883	389.116918723184	2
2	3889	389.517879630214	3
2	3908	392.1	1
2	3914	392.6	4
2	3919	392.902345612554	2
2	3924	393.203743247543	2
2	3928	393.406738460228	1
2	3950	396.4	4
2	3954	396.7	2
2	3959	397.003006117858	2
2	3964	397.309401087827	2
2	3987	400.5	5
2	3991	400.8	2
2	3998	401.302654434721	4
2	4004	401.709331650206	3
2	4025	404.3	3
2	4029	404.6	2
2	4033	404.808759400725	1
2	4041	405.221206697557	3
2	4046	405.422480911516	1
2	4050	405.625893011073	1
2	4055	405.930779576393	2
2	4063	406.332982592937	3
2	4084	410.3	3
2	4089	410.7	3
2	4095	411.104581592599	3
2	4100	411.409535212588	2
2	4106	411.815074474978	3
2	4128	414.4	4
2	4134	414.9	4
2	4138	415.107862285161	1
2	4143	415.409934319669	2
2	4150	415.918059375504	4
2	4172	418.4	4
2	4178	418.9	4
2	4184	419.205188479366	2
2	4189	419.515181648522	2
2	4194	419.816722309731	2
2	4214	422.2	2
2	4218	422.5	2
2	4223	422.801807683291	2
2	4227	423.004986668256	1
2	4235	423.605873161362	5
2	4240	423.911593249543	2
2	4264	426.6	6
2	4268	426.9	2
2	4273	427.200670985472	2
2	4278	427.50454069768	2
2	4301	430.5	5
2	4304	430.7	1
2	4310	431.103038743014	3
2	4319	431.812158930785	6
2	4326	432.114175361209	2
2	4345	436.1	1
2	4350	436.5	3
2	4354	436.705767096616	1
2	4358	436.909183562418	1
2	4378	440.2	2
2	4382	440.5	2
2	4388	440.908614007947	3
2	4395	441.416760714105	4
2	4416	444.3	3
2	4422	444.8	4
2	4427	445.105634260359	2
2	4431	445.310250337745	1
2	4438	445.817657356829	4
2	4460	448.4	4
2	4466	448.9	4
2	4470	449.102045422298	1
2	4475	449.408478706906	2
2	4479	449.61012303192	1
2	4490	450.217190445372	5
2	4513	454.5	5
2	4518	454.9	3
2	4524	455.305316683941	3
2	4531	455.811480116653	4
2	4551	458.2	2
2	4556	458.6	3
2	4562	459.007443608911	3
2	4567	459.31122083879	2
2	4572	459.614904871123	2
2	4594	462.4	4
2	4599	462.8	3
2	4604	463.108581173364	2
2	4610	463.510660923549	3
2	4616	463.912457851129	3
2	4625	464.417925990376	4
2	4629	464.621927435776	1
2	4651	468.4	4
2	4657	468.9	4
2	4664	469.406626352067	4
2	4668	469.607846731257	1
2	4690	472.4	4
2	4695	472.8	3
2	4702	473.304341093471	4
2	4706	473.506766404767	1
2	4711	473.816505080977	2
2	4718	474.121752540516	2
2	4725	474.628734534073	4
2	4744	478.2	2
2	4750	478.601565850477	3
2	4754	478.805916774738	1
2	4758	479.015318397811	1
2	4764	479.419030748793	3
2	4771	479.924305334003	4
