version 2
run Join-83-20130520-16:34:58-32715
attr configname Join
attr datetime 20130520-16:34:58
attr experiment "\"Join\""
attr inifile omnetpp.ini
attr iterationvars $0=8192
attr iterationvars2 "$0=8192, $repetition=3"
attr measurement $0=8192
attr network Network
attr processid 32715
attr repetition 3
attr replication #3
attr resultdir results
attr runnumber 83
attr seedset 83

vector 83  Network.dyn_peer[0]  lookupHopsSig:vector  ETV
83	22290	28.5	65
83	22335	32.5	39
83	22391	37.509365062925	49
83	22416	39.61772765692	20
83	22437	41.324149277817	16
83	22519	48.526698322956	71
83	22543	50.528275003506	19
83	22563	52.13224506984	15
83	22599	55.34096603668	31
83	22634	58.250780576862	28
83	22667	63.5	15
83	22693	65.8	22
83	22733	69.201989034698	33
83	22800	75.107229946902	58
83	22868	81.114115451135	59
83	22936	87.118673137387	59
83	23004	93.123716670298	59
83	23053	99.2	32
83	23170	109.8	105
83	23236	115.600896560142	57
83	23254	117.007083867659	13
83	23276	118.811765882397	17
83	23299	120.717085593338	18
83	23331	123.521105338323	27
83	23336	123.827664505014	2
83	23379	127.530987573567	36
83	23574	134.3	43
83	23778	140.8	64
83	23817	141.901638186988	10
83	23995	148.307308759195	63
83	24005	148.712706419128	3
83	24112	153.921513987361	51
83	24180	159.931325791869	59
83	24262	168.1	61
83	24302	171.8	36
83	24354	176.203084384612	43
83	24403	180.51276313695	42
83	24428	182.617826458517	20
83	24495	188.525168629727	58
83	24560	194.226055670625	56
83	24611	198.730306477104	44
83	24706	207.230341005925	84
83	24756	211.639139620874	43
83	24813	216.542159597776	48
83	24867	223.4	34
83	24902	226.4	29
83	24937	229.501285148663	30
83	24995	234.508655211303	49
83	25103	244.114326595074	95
83	25210	256.1	81
83	25229	257.9	17
83	25240	258.607793060801	6
83	25261	260.311258494692	16
83	25334	266.819931391967	64
83	25416	274.025204554796	71
83	25429	275.133334760151	10
83	25512	282.433593881521	72
83	25538	284.641842318772	21
83	25583	290.5	25
83	25611	293	24
83	25654	296.70454462524	36
83	25677	298.606383175977	18
83	25698	300.316246315384	16
83	25732	303.32336493207	29
83	25782	307.732041433056	43
83	25854	315.3	53
83	25881	317.7	23
83	25941	322.901921272426	51
83	25989	327.111742257663	41
83	26039	331.516215520387	43
83	26092	336.024658337198	44
83	26130	339.434580361961	33
83	26155	341.54368137251	20
83	26216	346.844926135862	52
83	26243	349.149015437712	22
83	26269	351.35078241999	21
83	26298	353.852184504829	24
83	26330	356.455999578104	25
83	26395	364.4	44
83	26454	369.8	53
83	26490	372.802291909914	29
83	26584	381.210417807632	83
83	26592	381.81089677892	5
83	26605	382.713305311476	8
83	26670	388.418439738415	56
83	26762	396.627794817185	81
83	26788	398.832999550818	21
83	26812	400.842644457813	19
83	26835	402.747127528961	18
83	26908	409.254207470272	64
83	26929	410.959820194648	16
83	26986	417.7	37
83	27068	425	72
83	27091	426.906341091089	18
83	27122	429.612295702369	26
83	27186	435.215137762552	55
83	27260	441.818796000223	65
83	27304	445.624554736524	37
83	27344	449.030486289833	33
83	27403	454.13622549778	50
83	27451	458.345356248944	41
83	27489	461.748937687676	33
83	27524	464.658646101788	28
83	27546	466.460119400151	17
83	27586	472.2	22
83	27609	474.2	19
83	27650	477.904922584912	36
83	27684	480.710208281448	27
83	27690	481.116117781679	3
83	27704	482.124473746972	9
83	27712	482.731791235265	5
83	27776	488.334499848692	55
83	27858	498	60
83	27892	501.1	30
83	27942	505.505392193484	43
83	27948	505.910686557865	3
83	27982	508.717785905009	27
83	28084	517.925845132019	91
83	28143	523.034255668349	50
83	28194	527.5372372132	44
83	28222	529.945670461365	23
83	28260	533.147451531616	31
83	28300	536.550065805401	33
83	28328	538.951719289665	23
83	28360	541.754707092666	27
83	28397	544.862027813866	30
83	28450	551.3	33
83	28550	560.2	88
83	28606	565.209644047161	49
83	28618	566.01887706915	7
83	28639	567.918917959817	18
83	28667	570.121803475944	21
83	28739	576.52746922379	63
83	28796	581.629503015432	50
83	28834	584.834801510862	31
83	28868	587.839061248529	29
83	28905	590.946063446386	30
83	28966	596.248118178911	52
83	29034	602.253010983037	59
83	29114	611.8	58
83	29128	612.9	10
83	29139	613.805129755327	8
83	29192	618.311334886405	44
83	29262	624.516755540688	61
83	29360	633.317527752598	87
83	29407	637.424606114791	40
83	29441	640.230919148761	27
83	29482	643.940711273727	36
83	29532	649	30
83	29611	656	69
83	29667	661.002453382858	49
83	29716	665.303313569524	42
83	29772	670.109446275508	47
83	29847	676.815297220527	66
83	29866	678.322011888586	14
83	29948	685.726235744652	73
83	29981	688.428277480221	26
83	30016	691.529763310221	30
83	30050	694.330488873478	27
83	30082	699.4	14
83	30147	705.2	57
83	30218	711.5031975675	62
83	30234	712.707688127669	11
83	30277	716.408869094626	36
83	30307	719.011449676792	25
83	30322	720.121284565809	10
83	30385	725.827674725854	56
83	30422	728.928190120635	30
83	30472	733.328730016359	43
83	30540	740.6	46
83	30574	743.7	30
83	30641	749.609789872125	58
83	30732	757.712438345451	80
83	30787	762.420215984526	46
83	30844	767.524382127464	50
83	30875	770.028392782028	24
83	30900	772.130492405906	20
83	30920	773.933760281813	17
83	30939	775.441467714158	14
83	30953	776.445535007407	9
83	30978	778.550598200765	20
83	30994	779.951248990304	13
83	31047	784.455197485254	44
83	31186	799.1	111
83	31208	801	18
83	31233	803.10195687602	20
83	31276	806.805915856521	36
83	31326	811.215233626995	43
83	31365	814.519715864565	32
83	31394	817.028431796077	24
83	31454	822.236770608994	51
83	31512	827.43781184495	51
83	31573	832.739012916952	52
83	31631	837.941450606053	51
83	31682	843.3	33
83	31760	850.2	68
83	31804	854.007253642126	37
83	31865	859.514501485758	54
83	31914	863.819818865743	42
83	31968	866.8	8
83	32024	870	31
83	32073	874.309420512528	42
83	32107	877.318171768709	29
83	32122	878.420270999911	10
83	32159	881.726975834384	32
83	32194	884.631902638567	28
83	32265	893.2	52
83	32285	894.9	16
83	32324	898.203285027877	32
83	32363	901.712246700131	34
83	32395	904.3206534448	25
83	32428	907.228760547921	28
83	32515	914.934663420819	76
83	32583	920.934975836811	59
83	32607	922.944914954657	19
83	32629	924.749904941411	17
83	32672	928.456656698307	36
83	32713	934.1	21
83	32751	937.6	34
83	32803	942.003510450255	43
83	32846	945.904874334439	38
83	32883	949.014018512872	30
83	32923	952.419388355329	33
83	32969	956.42451644399	39
83	32998	958.930253009316	24
83	33041	962.633348952501	36
83	33062	964.335712523175	16
83	33124	972	40
83	33150	974.3	22
83	33168	975.901581199856	15
83	33251	983.209638652957	72
83	33290	986.512944072938	32
83	33319	989.01984463164	24
83	33373	993.822070138057	47
83	33451	1000.625674110414	67
83	33486	1003.728489086041	30
83	33541	1008.429787962122	46
83	33574	1011.336273849929	28
83	33632	1017.9	39
83	33675	1021.7	37
83	33709	1024.50414074579	27
83	33722	1025.606005026392	10
83	33738	1026.81468084205	11
83	33749	1027.718777186421	8
83	33764	1028.821610549236	10
83	33828	1034.422579661539	55
83	33877	1038.727483242469	42
83	33963	1048.3	63
83	33983	1050	16
83	34004	1051.906098286728	18
83	34032	1054.116015107689	21
83	34043	1055.016127387146	8
83	34071	1057.424532025978	23
83	34089	1058.829076503012	13
83	34173	1066.233687104817	73
83	34238	1074.3	43
83	34290	1079	46
83	34321	1081.702804252861	26
83	34360	1085.005169097671	32
83	34379	1086.510574708885	14
83	34449	1092.715672750134	61
83	34493	1096.520629955996	37
83	34549	1103.9	39
83	34623	1110.4	64
83	34650	1112.701118166563	22
83	34715	1118.40318655573	56
83	34725	1119.211194767767	7
83	34786	1124.515409090878	52
83	34844	1129.72535787272	51
83	34970	1142.1	101
83	35008	1145.6	34
83	35039	1148.105790477194	24
83	35110	1154.409056564489	62
83	35190	1161.610537556625	71
83	35233	1165.316031775286	36
83	35252	1166.817722600237	14
83	35306	1171.620620827155	47
83	35398	1179.821651720857	81
83	35431	1182.522597213707	26
83	35527	1191.131550508663	85
83	35549	1192.935879546606	17
83	35574	1195.039061451316	20
83	35613	1198.348138057653	32
83	35635	1200.15002317939	17
83	35653	1201.750746601724	15
83	35694	1205.257336682162	34
83	35814	1211.9	39
83	35973	1219.2	72
83	36011	1220.800319193655	15
83	36117	1227.005294257295	61
83	36165	1231.211931975425	41
83	36237	1237.612467161139	63
83	36302	1243.319836167722	56
83	36365	1248.829317904595	54
83	36436	1255.139033042996	62
83	36529	1263.444669153378	82
83	36622	1271.749019159297	82
83	36695	1278.057860882316	62
83	36759	1283.860906780088	57
83	36852	1293	70
83	36902	1297.5	44
83	36936	1300.300110882029	27
83	36996	1305.707573132083	53
83	37027	1308.215110011965	24
83	37075	1312.419804236349	41
83	37106	1315.128356979531	26
83	37154	1319.332278724491	41
83	37216	1326.2	42
83	37243	1328.6	23
83	37286	1332.300852612555	36
83	37365	1339.410364740679	70
83	37399	1342.216428128499	27
83	37437	1345.621820793938	33
83	37494	1350.522855931056	48
83	37500	1350.925889427469	3
83	37519	1352.434783908671	14
83	37554	1357.7	17
83	37608	1362.4	46
83	37673	1368.102554113471	56
83	37745	1374.507439365614	63
83	37776	1377.210366749853	26
83	37846	1383.412748393764	61
83	37895	1387.713196953002	42
83	37985	1395.722524108642	79
83	38080	1404.029572406189	82
83	38114	1407.035957435543	29
83	38155	1410.541528648085	34
83	38237	1417.951237863489	73
83	38260	1419.857603524546	18
83	38340	1426.861225765163	69
83	38425	1434.362543121813	74
83	38547	1445.366001868293	109
83	38629	1452.571556317595	71
83	38662	1455.47442252175	28
83	38781	1467.3	93
83	38802	1469.1	17
83	38847	1473.004273802484	38
83	38910	1478.504657564018	54
83	38959	1482.813467383537	42
83	39048	1490.71386148043	78
83	39070	1492.517817103774	17
83	39120	1496.919442112932	43
83	39153	1499.826573373919	28
83	39176	1501.736286421158	18
83	39211	1504.636526563803	28
83	39232	1506.336608160119	16
83	39383	1515.5	55
83	39486	1520.2	46
83	39598	1525.209440109787	49
83	39681	1530.811762954424	55
83	39770	1538.712858045684	78
83	39854	1546.112964464112	73
83	39915	1551.620070286921	54
83	39999	1559.029126072543	73
83	40066	1564.935137789413	58
83	40171	1574.244272905563	92
83	40193	1576.047130743058	17
83	40236	1579.949392671766	38
83	40299	1585.449665813568	54
83	40385	1593.053244145832	75
83	40473	1600.857867225672	77
83	40576	1611.9	79
83	40597	1613.7	17
83	40672	1620.209455504557	64
83	40711	1623.717763250409	34
83	40776	1629.422046343338	56
83	40796	1631.028720886077	15
83	40816	1632.629661418123	15
83	40843	1634.932196077045	22
83	40893	1639.340403104228	43
83	40942	1643.643573513716	42
83	40961	1645.144469410791	14
83	41007	1650.8	28
83	41031	1652.9	20
83	41093	1658.307312233287	53
83	41142	1662.61566119986	42
83	41218	1669.425075219672	67
83	41262	1673.229554040779	37
83	41323	1678.533688586431	52
83	41401	1687.9	59
83	41441	1691.4	34
83	41453	1692.203503121954	7
83	41524	1698.508957524845	62
83	41570	1702.512737577513	39
83	41644	1709.115500253282	65
83	41753	1718.823273489234	96
83	41782	1721.323664246628	24
83	41869	1729.028038991208	76
83	41917	1734.8	28
83	41989	1741.3	64
83	42031	1744.907866657257	35
83	42084	1749.610128750143	46
83	42120	1752.615070904561	29
83	42146	1754.819590174346	21
83	42185	1758.1269805347	32
83	42212	1760.431130609855	22
83	42248	1763.63994534459	31
83	42289	1767.144173055105	34
83	42312	1769.050778188838	18
83	42367	1773.959464985912	48
83	42405	1777.166120185414	31
83	42442	1780.266969436239	30
83	42518	1789.5	55
83	42536	1791	14
83	42557	1792.707040288071	16
83	42596	1796.014852435504	32
83	42613	1797.51650953536	14
83	42633	1799.118054294847	15
83	42648	1800.224160600032	10
83	42680	1805.7	17
83	42732	1810.2	44
83	42763	1812.906497784953	26
83	42840	1819.812280466142	68
83	42898	1824.820646677915	49
83	42975	1831.727234695476	68
83	43051	1838.336985970222	65
83	43126	1845.044790244429	66
83	43178	1851.4	34
83	43254	1858.1	66
83	43353	1867.003070166565	88
83	43443	1875.006256867707	79
83	43511	1881.014871127332	59
83	43529	1882.417576571743	13
83	43596	1888.31790662955	58
83	43658	1893.919385942397	55
83	43732	1900.322647918224	63
83	43809	1909.7	57
83	43867	1914.8	50
83	43905	1918.003386893807	31
83	43946	1921.707751864044	36
83	43988	1925.311352684202	35
83	44023	1928.214606082215	28
83	44092	1934.322892099627	60
83	44121	1936.824412898436	24
83	44262	1945	50
83	44319	1947.6	25
83	44439	1953.106339867298	54
83	44531	1957.310560580244	41
83	44563	1958.718547729049	13
83	44659	1963.123436331306	43
83	44699	1964.925355445132	17
83	44755	1968.425390619113	34
83	44805	1972.826995908074	43
83	44823	1974.236073286529	13
83	44876	1981.3	33
83	44932	1986.2	48
83	45006	1992.809187683931	65
83	45027	1994.514815157081	16
83	45039	1995.520581932395	9
83	45051	1996.329045057954	7
83	45117	2002.129403607536	57
83	45170	2006.83685554675	46
83	45204	2009.840964245464	29
83	45234	2012.248073565695	23
83	45334	2023.6	76
83	45370	2026.7	30
83	45409	2030.000777292856	32
83	45445	2033.20248306932	31
83	45488	2036.905868544842	36
83	45544	2041.909693650203	49
83	45608	2047.518340155538	55
83	45664	2052.324583143903	47
83	45712	2056.530139117279	41
83	45750	2059.936408343017	33
83	45791	2063.444376280917	34
83	45840	2067.749135561617	42
83	45922	2074.957264634558	71
83	45970	2079.159844860586	41
83	46036	2084.962957739755	57
83	46111	2093.3	53
83	46159	2097.6	42
83	46224	2103.306860132548	56
83	46284	2108.510649014646	51
83	46321	2111.820391670772	32
83	46466	2119.1	51
83	46757	2132.5	133
83	46816	2137.50505935705	49
83	46849	2140.213321553698	26
83	46862	2141.319494621014	10
83	46902	2144.728691920534	33
83	46976	2151.329134165424	65
83	47020	2155.131259920646	37
83	47043	2157.038615936439	18
83	47092	2161.343877749219	42
83	47206	2171.551573275657	101
83	47275	2178.7	47
83	47335	2184	52
83	47396	2189.506442992615	54
83	47443	2193.609461620994	40
83	47480	2196.716593871171	30
83	47507	2199.020429697556	22
83	47522	2200.124674149646	10
83	47536	2201.32650911217	11
83	47594	2206.330778392766	49
83	47715	2219.5	95
83	47771	2224.4	48
83	47827	2229.407722549112	49
83	47849	2231.211704030965	17
83	47916	2237.120703816606	58
83	47981	2242.823653152996	56
83	48046	2248.529404567332	56
83	48111	2254.229726363062	56
83	48172	2259.735268899214	54
83	48201	2263.2	12
83	48239	2266.5	32
83	48274	2269.604318181253	30
83	48331	2274.513316237439	48
83	48438	2284.018194993069	94
83	48488	2288.427465324102	43
83	48522	2291.430985987904	29
83	48556	2294.23796579102	27
83	48595	2297.74519352198	34
83	48626	2300.252355142751	24
83	48689	2305.953676692622	56
83	48800	2315.857932705862	98
83	48864	2321.463053368173	55
83	48915	2325.964006319291	44
83	48982	2331.864542878524	58
83	49074	2340.9	69
83	49085	2341.9	9
83	49095	2342.504789166748	5
83	49121	2344.705593393069	21
83	49141	2346.312542732682	15
83	49156	2347.612911069307	12
83	49179	2349.518514235797	18
83	49211	2353.7	17
83	49287	2360.4	66
83	49315	2362.807836224799	23
83	49398	2370.116610392454	72
83	49426	2372.525722058409	23
83	49452	2374.729211827265	21
83	49484	2377.536602632084	27
83	49554	2385.1	51
83	49637	2392.5	73
83	49766	2404.009374253856	114
83	49814	2408.211938588704	41
83	49863	2412.516342979654	42
83	49907	2416.320664141218	37
83	49966	2421.625020911421	52
83	50018	2426.032977589755	43
83	50269	2440	100
83	50352	2446.9	68
83	50373	2448.604450253844	16
83	50393	2450.204969070441	15
83	50477	2457.80683344958	75
83	50505	2460.01585139097	21
83	50529	2462.018056094986	19
83	50545	2463.424635730085	13
83	50608	2468.929176372345	54
83	50633	2471.035360547047	20
83	50683	2475.436919292713	43
83	50735	2481.2	32
83	50787	2485.9	46
83	50815	2488.101641619272	21
83	50884	2494.204845984025	60
83	50895	2495.1141002145	8
83	51006	2505.019909969054	98
83	51014	2505.620346151069	5
83	51044	2508.029920244598	23
83	51073	2510.535903070216	24
83	51154	2517.841665597391	72
83	51236	2526	60
83	51255	2527.8	17
83	51315	2533.009714760752	51
83	51407	2541.213726528104	81
83	51456	2545.518481525942	42
83	51472	2546.723725586619	11
83	51495	2548.62915802773	18
83	51517	2550.433067981972	17
83	51545	2552.833108608169	23
83	51583	2556.041014048662	31
83	51623	2559.644489302025	35
83	51733	2570.4	84
83	51818	2578	75
83	51873	2582.909165418513	48
83	51966	2591.214366302538	82
83	52056	2599.222871754592	79
83	52164	2608.825294544073	95
83	52226	2614.225718070392	53
83	52296	2620.426306119484	61
83	52319	2624.7	7
83	52363	2628.6	38
83	52421	2633.808895251343	51
83	52438	2635.111105405983	12
83	52500	2640.52037767791	53
83	52559	2645.824318423509	52
83	52598	2649.125901058104	32
83	52629	2651.831504599316	26
83	52643	2652.833089251805	9
83	52693	2657.239166163842	43
83	52761	2663.240967638872	59
83	52864	2673.9	79
83	52908	2677.8	38
83	52965	2682.706365751952	48
83	52977	2683.707994979617	9
83	53036	2688.812996847968	50
83	53074	2692.022199285871	31
83	53137	2697.730168362998	56
83	53217	2704.740077918348	69
83	53284	2710.64242725829	58
83	53351	2716.550261900682	58
83	53558	2725.8	58
83	53645	2729.8	39
83	53729	2733.608369084589	37
83	53851	2739.111577364538	54
83	53905	2742.811839406496	36
83	53952	2746.917790180159	40
83	53997	2750.81790495123	38
83	54060	2756.321123411352	54
83	54141	2763.628626695269	72
83	54149	2764.034381353574	3
83	54169	2765.836869597945	17
83	54254	2773.343741836315	74
83	54297	2777.051778371036	36
83	54375	2785.8	58
83	54408	2788.6	27
83	54450	2792.207540607748	35
83	54496	2796.216083461763	39
83	54522	2798.41905625513	21
83	54568	2802.426392488644	39
83	54620	2807.033252128438	45
83	54648	2809.441630390438	23
83	54691	2813.144033475988	36
83	54848	2821.7	57
83	54883	2823.3	15
83	54932	2825.408223845788	20
83	54964	2826.811501366369	13
83	55008	2828.716448835303	18
83	55050	2830.616657161909	18
83	55086	2832.22095349391	15
83	55206	2837.822439179632	55
83	55260	2840.128940394709	22
83	55288	2841.430146299893	12
83	55368	2845.135888660153	36
83	55402	2846.642734771141	14
83	55504	2852.3	23
83	55573	2855.6	32
83	55699	2861.30833375764	56
83	55821	2866.910480971128	55
83	55920	2871.515552155053	45
83	55976	2876.318712853923	47
83	56030	2881.121191842265	47
83	56087	2886.031090876071	48
83	56198	2896.6	66
83	56208	2897.5	8
83	56221	2898.40948960779	8
83	56237	2899.811325159999	13
83	56299	2905.218074952088	53
83	56330	2907.92308903894	26
83	56416	2915.527488831142	75
83	56429	2916.429077651002	8
83	56434	2916.732770761837	2
83	56473	2920.032866379873	32
83	56512	2923.538279691872	34
83	56524	2924.346389504706	7
83	56536	2925.346948695119	9
83	56640	2934.554419693619	91
83	56727	2944.3	63
83	56755	2946.8	24
83	56773	2948.201180608014	13
83	56839	2954.009786348584	57
83	56908	2960.116723272859	60
83	56924	2961.521572240584	13
83	56956	2964.125991141553	25
83	56997	2967.830104848629	36
83	57006	2968.338575783016	4
83	57065	2973.643921888056	52
83	57129	2979.248883343047	55
83	57176	2984.8	28
83	57225	2989.2	43
83	57283	2994.20141287211	49
83	57345	2999.805651788091	55
83	57419	3006.208717962106	63
83	57459	3009.817999368946	35
83	57523	3015.421195553914	55
83	57579	3020.222608998206	47
83	57635	3025.223612212569	49
83	57657	3027.029374215637	17
83	57720	3032.535856995919	54
83	57769	3039	30
83	57812	3042.8	37
83	57844	3045.608030328543	27
83	57883	3048.914892269845	32
83	58001	3059.518339589933	105
83	58029	3061.92147779831	23
83	58043	3062.931286884176	9
83	58069	3065.141160287335	21
83	58094	3067.242751676751	20
83	58114	3068.852415524622	15
83	58141	3071.156095257286	22
83	58184	3074.863364021273	36
83	58216	3077.672510473281	27
83	58328	3083.5	35
83	58449	3088.9	53
83	58489	3090.707670392473	17
83	58541	3093.51674362224	27
83	58603	3098.922088468712	53
83	58651	3103.127674767139	41
83	58677	3105.328091027421	21
83	58726	3109.637083564094	42
83	58797	3117.1	51
83	58835	3120.4	32
83	58861	3122.608644043446	21
83	58911	3127.01062136582	43
83	58926	3128.117977536571	10
83	59013	3138.3	63
83	59078	3144.1	57
83	59126	3148.300551528634	41
83	59166	3151.902076325718	35
83	59216	3156.110347986746	41
83	59247	3158.813739480516	26
83	59280	3161.714256091432	28
83	59350	3167.918259515494	61
83	59579	3179	90
83	59632	3181.4	23
83	59710	3184.907655948132	34
83	59855	3191.516491444685	65
83	59891	3194.519814414986	29
83	59924	3197.428086957729	28
83	59977	3203.3	33
83	60004	3205.7	23
83	60044	3209.102032306187	33
83	60072	3211.506333108711	23
83	60091	3213.012417048913	14
83	60129	3216.212658171226	31
83	60156	3218.51331874057	22
83	60220	3226.5	45
83	60233	3227.7	11
83	60258	3229.803695546472	20
83	60283	3231.906760519805	20
83	60313	3234.308241570013	23
83	60340	3236.61333145245	22
83	60363	3238.515747350058	18
83	60481	3249.125028497809	105
83	60599	3261.4	94
83	60641	3265.1	36
83	60681	3268.504475780327	33
83	60716	3271.612919377898	30
83	60747	3274.118622112501	24
83	60788	3277.821529116144	36
83	60810	3279.622846963082	17
83	60899	3288.8	68
83	60944	3292.8	39
83	60982	3296.001834642016	31
83	61018	3299.202992916181	31
83	61060	3302.809237853159	35
83	61083	3304.711739888666	18
83	61126	3308.41392461599	36
83	61264	3323.3	113
83	61300	3326.4	30
83	61370	3332.606252318855	61
83	61404	3335.615073967589	29
83	61456	3340.023694525921	43
83	61530	3346.629263743608	65
83	61580	3351.036710323098	43
83	61620	3354.441296550783	33
83	61653	3357.343688734576	28
83	61687	3360.150917489297	27
83	61726	3363.658801559129	34
83	61790	3369.2645122246	55
83	61812	3372.4	4
83	61843	3375.2	27
83	61923	3382.208550101083	69
83	61986	3387.911505628232	56
83	62023	3391.017233067778	30
83	62064	3394.523037263801	34
83	62102	3397.925627383672	33
83	62125	3399.831721960965	18
83	62187	3405.240242204519	53
83	62237	3409.64190050061	43
83	62306	3416.7	47
83	62339	3419.7	29
83	62413	3426.101826944951	63
83	62465	3430.705462410204	45
83	62508	3434.410042709904	36
83	62544	3437.61012304001	31
83	62591	3441.713485216214	40
83	62611	3443.322433772592	15
83	62634	3445.226921005958	18
83	62657	3447.127968820381	18
83	62678	3448.835018601942	16
83	62734	3453.840586110319	49
83	62835	3462.749169274124	88
83	62947	3469.6	36
83	63040	3473.9	42
83	63138	3478.20808883504	42
83	63193	3480.717003048846	24
83	63251	3484.818193504511	40
83	63275	3486.827721711139	19
83	63302	3489.131065538637	22
83	63387	3496.633515500304	74
83	63444	3501.733840056796	50
83	63495	3506.041029154668	42
83	63547	3510.64648631132	45
83	63589	3514.251581985114	35
83	63625	3517.45208348795	31
83	63642	3518.757752939482	12
83	63751	3527.8	58
83	63807	3532.7	48
83	63842	3535.807734337227	30
83	63897	3540.51707873969	46
83	63923	3542.717590532404	21
83	63991	3548.726670531966	59
83	64012	3550.430306575533	16
83	64079	3556.335958044591	58
83	64152	3562.845232232959	64
83	64212	3570	40
83	64219	3570.6	5
83	64263	3574.400784241533	37
83	64352	3582.306631414898	78
83	64366	3583.510022327376	11
83	64419	3588.015561059564	44
83	64446	3590.324011780558	22
83	64483	3593.625263093008	32
83	64532	3597.933640842455	42
83	64578	3601.934134632554	39
83	64631	3606.439713813793	44
83	64674	3610.147776664551	36
83	64713	3613.64855551209	34
83	64766	3618.14894795661	44
83	64819	3622.8	8
83	64837	3623.9	10
83	64893	3628.701012598497	47
83	64942	3633.010218693525	42
83	64968	3635.217428164793	21
83	65006	3638.423399148992	31
83	65032	3640.632012181511	21
83	65085	3645.332712419455	46
83	65171	3650.3	23
83	65417	3661.7	113
83	65441	3662.702007894071	9
83	65463	3663.604089202894	8
83	65475	3664.409227983845	7
83	65510	3667.518379577268	30
83	65525	3668.622204115761	10
83	65544	3670.124257414236	14
83	65573	3675.3	13
83	65601	3677.8	24
83	65651	3682.000918384364	41
83	65699	3686.203506667727	41
83	65747	3690.403754188403	41
83	65804	3695.503791489089	50
83	65850	3699.51156260784	39
83	65907	3704.4169725721	48
83	65950	3708.121476214639	36
83	65992	3711.931130202744	37
83	66061	3718.9	49
83	66083	3720.8	18
83	66114	3723.502365153145	26
83	66139	3725.603358473057	20
83	66199	3730.809538289197	51
83	66244	3734.716110981235	38
83	66255	3735.619256851016	8
83	66292	3740	20
83	66317	3742.2	21
83	66345	3744.605405858478	23
83	66390	3748.512942788079	38
83	66421	3751.221445124486	26
83	66448	3753.528409495559	22
83	66488	3756.9361860282	33
83	66517	3759.439726418233	24
83	66541	3761.446653270259	19
83	66569	3763.851683890832	23
83	66594	3765.955606795373	20
83	66710	3776.159163606921	101
83	66735	3778.266197566909	20
83	66828	3786.57094188179	82
83	66887	3791.877335053275	52
83	66936	3796.9	29
83	66956	3798.6	16
83	67027	3804.906911930993	62
83	67051	3806.915857921942	19
83	67089	3810.122002949615	31
83	67153	3815.931355311843	57
83	67195	3819.535155832656	35
83	67231	3822.535538950637	29
83	67252	3824.239715434624	16
83	67279	3826.544861957166	22
83	67300	3828.250688031006	16
83	67325	3830.353598164226	20
83	67348	3832.254817880279	18
83	67421	3841.1	51
83	67445	3843.2	20
83	67483	3846.407193838178	31
83	67515	3849.208353420115	27
83	67560	3853.111318498252	38
83	67595	3856.013187618332	28
83	67651	3861.016354022693	49
83	67680	3863.524039840289	24
83	67697	3864.833783770131	12
83	67742	3868.739093396439	38
83	67784	3872.347137365968	35
83	67823	3875.847835001207	34
83	67880	3880.749763684067	48
83	68008	3894	100
83	68062	3898.9	48
83	68123	3904.205986738207	52
83	68177	3909.012009234118	47
83	68236	3914.117694535508	50
83	68259	3916.019819154558	18
83	68316	3921.125621016242	50
83	68385	3927.226687495824	60
83	68459	3933.833829099188	65
83	68517	3938.834236663387	49
83	68630	3945.6	36
83	68685	3948.1	24
83	68747	3950.903282019204	27
83	68785	3952.604816740817	16
83	68824	3954.314056782688	16
83	68882	3956.920121269899	25
83	68928	3958.928646677064	19
83	69071	3970.1	81
83	69102	3972.9	27
83	69178	3979.704127935888	67
83	69203	3981.811013683427	20
83	69262	3986.912975573303	50
83	69347	3994.42262951884	74
83	69440	4002.725631777851	82
83	69503	4008.231060533902	54
83	69530	4010.535154749936	22
83	69588	4015.742871501947	51
83	69632	4019.550397505358	37
83	69649	4020.85166927093	12
83	69732	4026.1	21
83	69821	4030.2	40
83	69918	4034.704453644345	44
83	70045	4040.506093957768	57
83	70065	4041.410044375792	8
83	70192	4048.414198923857	69
83	70278	4056.015461955877	75
83	70291	4057.124981456995	10
83	70357	4062.934124915867	57
83	70429	4071.1	51
83	70490	4076.5	53
83	70557	4082.409769169075	58
83	70627	4088.613188943335	61
83	70641	4089.822207861538	11
83	70654	4090.73173250341	8
83	70710	4095.740700729139	49
83	70779	4101.849335029245	60
83	70848	4107.951250497141	60
83	70872	4109.960075967559	19
83	70940	4115.966146594356	59
83	70970	4118.371646460418	23
83	71091	4129.273556215695	108
83	71206	4140.9	89
83	71259	4145.7	47
83	71282	4147.605770841373	18
83	71312	4150.01179923257	23
83	71359	4154.112406968245	40
83	71432	4160.621244975136	64
83	71465	4163.523654279046	28
83	71513	4169.1	31
83	71540	4171.5	23
83	71567	4173.801812621734	22
83	71658	4181.905934274633	80
83	71686	4184.112232219859	21
83	71712	4186.314796133274	21
83	71739	4188.615991067341	22
83	71828	4198.8	68
83	71888	4204.1	52
83	71911	4206.001196216868	18
83	71971	4211.4026329158	53
83	72004	4214.10469183096	26
83	72037	4217.01167479055	28
83	72078	4220.514718440505	34
83	72127	4224.823834182549	42
83	72161	4227.825820674359	29
83	72217	4232.628198172927	47
83	72394	4242.5	65
83	72521	4248.3	57
83	72747	4258.909277770654	105
83	72796	4261.814430379301	28
83	72819	4263.719059855289	18
83	72879	4268.922975791651	51
83	72910	4271.631002663194	26
83	72951	4275.138964631275	34
83	72983	4277.948617464228	27
83	73120	4284.7	47
83	73165	4286.7	19
83	73173	4287.007209463401	2
83	73235	4289.81634935066	27
83	73266	4291.117631576404	12
83	73331	4294.019275301043	28
83	73386	4297.520364247083	34
83	73423	4302.3	23
83	73452	4305.1	27
83	73476	4307.304074129406	21
83	73500	4309.512575429593	21
83	73520	4311.318840280236	17
83	73551	4314.227792020503	28
83	73591	4318.031198119083	37
83	73616	4320.340548790241	22
83	73664	4324.944244556198	45
