version 2
run Join-63-20130520-16:32:44-32715
attr configname Join
attr datetime 20130520-16:32:44
attr experiment "\"Join\""
attr inifile omnetpp.ini
attr iterationvars $0=2048
attr iterationvars2 "$0=2048, $repetition=3"
attr measurement $0=2048
attr network Network
attr processid 32715
attr repetition 3
attr replication #3
attr resultdir results
attr runnumber 63
attr seedset 63

vector 63  Network.dyn_peer[0]  lookupHopsSig:vector  ETV
63	5940	20.9	29
63	6029	25	40
63	6125	29.400860431604	43
63	6158	32.107853496982	26
63	6185	34.414270496863	22
63	6228	38.114679252937	36
63	6238	38.923264389912	7
63	6285	43.023497122322	40
63	6313	45.428551126796	23
63	6360	49.53284243844	40
63	6394	52.337254083568	27
63	6424	54.947099450986	25
63	6471	59.053234564518	40
63	6517	64.8	28
63	6533	66.1	12
63	6568	69.200106802089	30
63	6598	71.800149166195	25
63	6616	73.204067171623	13
63	6639	75.106195792799	18
63	6657	76.506250918219	13
63	6672	77.808650049558	12
63	6690	79.213891963262	13
63	6753	86.2	42
63	6781	88.7	24
63	6802	90.402442693659	16
63	6815	91.505022035385	10
63	6839	93.511726889127	19
63	6863	95.513136911509	19
63	6926	101.014764824768	54
63	6949	102.915930181301	18
63	6980	105.624476960787	26
63	7021	110.1	21
63	7030	110.9	7
63	7047	112.209340557884	12
63	7075	114.616003806371	23
63	7096	116.321445641227	16
63	7129	119.222693484644	28
63	7156	121.527368065432	22
63	7190	124.337098307042	27
63	7219	126.844114799553	24
63	7231	127.852956751137	9
63	7276	132.5	25
63	7298	134.4	18
63	7351	139.103826000415	46
63	7374	141.007658069621	18
63	7396	142.810800170538	17
63	7429	145.713397452792	28
63	7446	147.016986764131	12
63	7476	151.2	12
63	7481	151.6	3
63	7500	153.108956250827	14
63	7506	153.512691190048	3
63	7532	155.720656397671	21
63	7540	156.121654256267	3
63	7546	156.523001329974	3
63	7612	164.7	47
63	7629	166.1	13
63	7677	170.302746511171	41
63	7721	174.103889452472	37
63	7768	178.205057576821	40
63	7782	179.414688311506	11
63	7830	183.617127056948	41
63	7835	183.923487877598	2
63	7883	188.8	28
63	7906	190.8	19
63	7912	191.2057696524	3
63	7934	193.011148563166	17
63	7948	194.015818569698	9
63	7997	198.316163682148	42
63	8020	200.132470262487	17
63	8038	201.741523592724	15
63	8060	203.543483434694	17
63	8079	205.053224138859	14
63	8102	206.955282522418	18
63	8117	208.06256089809	10
63	8153	213.9	19
63	8191	217.2	32
63	8228	220.30839680612	30
63	8244	221.715136978187	13
63	8295	226.021229827183	42
63	8324	231.1	11
63	8346	233	18
63	8370	235.0075163472	19
63	8413	238.714725844214	36
63	8419	239.121348761672	3
63	8446	241.431344370879	22
63	8480	244.237092384414	27
63	8510	246.843489123948	25
63	8531	248.549709593443	16
63	8550	250.052937292804	14
63	8574	252.057426928407	19
63	8623	256.366342534799	42
63	8674	260.5	5
63	8733	263.1	25
63	8779	265.408536781363	22
63	8813	268.209037717794	27
63	8835	270.017599512977	17
63	8871	273.226650781163	31
63	8899	275.632452270094	23
63	8931	278.232756919324	25
63	8949	279.833626088487	15
63	8982	283.5	15
63	8992	284.2	6
63	8999	284.705214086917	4
63	9021	286.512445170089	17
63	9062	290.016084049715	34
63	9075	291.117524199828	10
63	9100	293.225098358546	20
63	9131	295.932078667168	26
63	9166	298.840466626632	28
63	9189	300.741772717419	18
63	9218	303.244654959887	24
63	9289	307.5	15
63	9324	309	14
63	9340	309.708267638718	6
63	9379	311.318200984771	15
63	9423	313.325633667331	19
63	9445	314.833231346493	14
63	9456	315.735249172598	8
63	9500	320.7	27
63	9520	322.4	16
63	9553	325.304360096429	28
63	9569	326.507838327607	11
63	9588	328.014662959256	14
63	9614	330.222722584923	21
63	9626	331.224215362918	9
63	9669	334.924878965156	36
63	9696	337.227203980023	22
63	9738	340.3	3
63	9816	344.3	39
63	9848	347.105408170882	27
63	9871	349.011866317384	18
63	9898	351.321832544314	22
63	9916	352.725458468524	13
63	9941	354.831469043946	20
63	9969	357.235835710855	23
63	10010	361.6	16
63	10029	363.2	15
63	10059	365.808886223344	25
63	10088	368.110159828841	22
63	10123	371.216726526449	30
63	10161	374.420354620005	31
63	10195	377.426020437277	29
63	10211	378.633002356151	11
63	10220	379.335604555478	6
63	10260	382.744605294772	33
63	10283	384.651368868526	18
63	10331	390.9	29
63	10346	392.1	11
63	10355	392.806723568816	6
63	10366	393.716325045536	8
63	10401	396.625235790569	28
63	10454	401.333483057434	46
63	10498	406.4	24
63	10517	408	15
63	10543	410.206634026214	21
63	10559	411.609444350609	13
63	10580	413.310400211819	16
63	10596	414.519515819515	11
63	10620	416.526832342085	19
63	10642	420.7	7
63	10665	422.7	19
63	10691	424.900296868209	21
63	10706	426.00464149645	10
63	10758	430.612382273617	45
63	10782	432.61346441018	19
63	10806	434.619798082065	19
63	10831	436.720823145141	20
63	10855	438.725824636195	19
63	10864	439.431345373042	6
63	10887	441.336718123607	18
63	10893	441.737607754266	3
63	10940	445.840657507283	40
63	10997	450.742958209195	48
63	11029	455.4	14
63	11073	459.3	38
63	11107	462.108702137237	27
63	11131	464.115334083104	19
63	11142	465.025156171095	8
63	11153	465.92533760679	8
63	11197	469.725657405136	37
63	11208	470.429110321875	6
63	11260	477.2	32
63	11268	477.9	6
63	11288	479.507416882761	15
63	11314	481.712649299224	21
63	11327	482.618287696236	8
63	11348	484.327717589364	16
63	11365	485.829583121769	14
63	11385	487.432196604169	15
63	11407	490.6	6
63	11426	492.2	15
63	11474	496.402290632231	41
63	11538	502.010253581763	55
63	11621	508.1	21
63	11670	510.3	21
63	11712	512.101128066275	17
63	11726	512.702349251352	5
63	11804	516.102620705293	33
63	11816	516.60418690581	4
63	11884	520.810739946185	41
63	11917	525.5	15
63	11930	526.5	9
63	11949	528.003962769112	14
63	11960	528.911539859813	8
63	11987	531.212327057273	22
63	12008	532.922235742063	16
63	12094	542.2	62
63	12133	545.8	35
63	12148	546.905663875672	10
63	12190	550.50855068471	35
63	12213	552.414295972925	18
63	12226	553.520081706484	10
63	12246	555.127974847885	15
63	12265	556.630390871927	14
63	12299	559.635865010419	29
63	12321	561.44091384442	17
63	12358	564.542717383698	30
63	12377	566.045244099652	14
63	12420	572.5	25
63	12457	575.9	33
63	12472	577.000922795971	10
63	12515	580.71070165577	36
63	12569	585.512181320915	47
63	12586	586.817839215659	12
63	12615	589.318979951183	24
63	12639	591.324468726304	19
63	12665	593.534338294253	21
63	12682	594.83631497014	12
63	12710	599	10
63	12732	600.9	18
63	12758	603.100593894417	21
63	12783	605.201214790239	20
63	12806	607.10794795778	18
63	12832	609.317700017635	21
63	12855	611.227356401086	18
63	12909	617.7	37
63	12929	619.4	16
63	12950	621.105406483958	16
63	12975	623.212690658989	20
63	13022	627.316238935979	40
63	13038	628.518436179934	11
63	13104	636.4	44
63	13129	638.6	21
63	13150	640.306088372792	16
63	13163	641.412432213466	10
63	13183	643.01575891193	15
63	13199	644.219013221149	11
63	13214	645.528292921892	12
63	13229	646.637268845293	10
63	13243	647.846195768083	11
63	13260	649.146938010219	12
63	13274	650.151902521457	9
63	13307	655.7	17
63	13336	658.1	23
63	13375	661.605949813961	34
63	13393	663.015801209786	13
63	13413	664.625478914374	15
63	13427	665.831736942188	11
63	13448	667.539055185481	16
63	13491	671.242028287043	36
63	13544	674.7	7
63	13589	676.8	20
63	13647	679.300763364692	24
63	13713	682.303591163958	29
63	13741	684.409319121761	20
63	13774	687.311758407191	28
63	13794	688.921285690972	15
63	13816	692.7	7
63	13869	697.5	47
63	13891	699.300877793552	17
63	13916	701.401491752462	20
63	13933	702.705828211402	12
63	13955	704.50679774856	17
63	13979	708.6	6
63	14001	710.5	18
63	14015	711.705507781479	11
63	14027	712.514436810381	7
63	14063	715.719177044878	31
63	14102	719.019572123616	32
63	14156	725.4	34
63	14170	726.5	10
63	14186	727.900696533392	13
63	14202	729.100786114304	11
63	14249	733.209562321921	40
63	14307	738.209562564365	49
63	14390	744.1	21
63	14415	745.3	11
63	14446	746.604194685502	12
63	14489	748.612986519739	19
63	14495	749.022616577906	3
63	14524	751.526185845747	24
63	14541	752.82874407114	12
63	14574	755.732163721185	28
63	14619	760.5	25
63	14628	761.3	7
63	14641	762.206240208579	8
63	14653	763.212766092449	9
63	14672	764.714055605741	14
63	14689	766.017888026228	12
63	14705	767.324919626686	12
63	14754	773.2	32
63	14781	775.6	23
63	14812	778.10091366091	24
63	14838	780.307048691683	21
63	14856	781.911920809731	15
63	14913	786.81998292012	48
63	14939	789.022897691722	21
63	14961	790.823059665167	17
63	14994	793.728038813227	28
63	15012	795.136402900803	13
63	15037	797.237464255902	20
63	15059	800.5	5
63	15079	802.2	16
63	15113	805.205572930027	29
63	15136	807.111401580038	18
63	15162	809.320402204002	21
63	15190	811.728778037043	23
63	15215	813.835497015745	20
63	15265	818.042260690983	41
63	15316	822.545465054877	44
63	15363	826.655093206203	40
63	15392	829.162746283166	24
63	15435	832.864319566405	36
63	15462	836.9	9
63	15480	838.4	14
63	15503	840.308335919536	18
63	15563	845.717296846101	53
63	15567	845.925994071566	1
63	15575	846.327234468829	3
63	15589	847.527435178855	11
63	15601	848.327662901008	7
63	15624	850.228687096632	18
63	15640	851.63412705834	13
63	15748	857.5	35
63	15758	857.9	3
63	15794	859.500783226958	15
63	15842	861.506739859438	19
63	15869	862.515825237439	9
63	15925	865.121319913708	25
63	15973	867.230233357818	20
63	16007	869.037026424332	17
63	16037	871.646540585522	25
63	16085	876.8	28
63	16102	878.2	13
63	16146	882.00767568615	37
63	16177	884.715767910692	26
63	16183	885.116567272462	3
63	16212	887.617800958756	24
63	16254	892.2	22
63	16281	894.6	23
63	16310	897.108656005507	24
63	16339	899.609174822898	24
63	16374	902.516941836481	28
63	16381	903.022181747979	4
63	16417	907.8	18
63	16444	910	21
63	16465	911.902288474079	18
63	16489	913.902431694368	19
63	16528	917.206255169018	32
63	16547	918.707621546048	14
63	16577	921.316680998672	25
63	16607	923.925815310359	25
63	16639	926.530915630177	25
63	16693	933.6	36
63	16714	935.4	17
63	16742	937.808683520136	23
63	16766	939.816537841171	19
63	16843	946.524989248222	66
63	16890	950.625977056965	40
63	16945	954.8	8
63	17007	959	41
63	17040	961.90357578556	28
63	17056	963.105459538434	11
63	17101	967.005522428202	38
63	17120	968.510346963494	14
63	17149	971.010405273192	24
63	17160	971.917775707832	8
63	17191	974.426824353814	24
63	17237	978.427567012227	39
63	17266	983.1	11
63	17295	985.7	25
63	17311	986.901046300767	11
63	17331	988.509528451491	15
63	17352	990.216515693405	16
63	17370	991.822418606361	15
63	17409	995.129983659026	32
63	17455	1000.6	26
63	17473	1002.1	14
63	17492	1003.801320435183	16
63	17512	1005.404815889559	15
63	17533	1007.108231806786	16
63	17596	1012.617225576372	54
63	17616	1014.218919835668	15
63	17639	1016.128872562497	18
63	17656	1017.634352615321	14
63	17697	1021.138638133207	34
63	17720	1023.041388783318	18
63	17810	1032.6	66
63	17828	1034.1	14
63	17882	1038.906313524763	47
63	17903	1040.616149784021	16
63	17926	1042.519593746305	18
63	17935	1043.223899763069	6
63	17960	1045.330801578665	20
63	17979	1046.84008192965	14
63	18003	1048.846117424861	19
63	18015	1049.852915627675	9
63	18036	1051.552944004785	16
63	18052	1052.754592698824	11
63	18083	1055.464476833967	26
63	18147	1062.3	43
63	18169	1064.2	18
63	18192	1066.109046947979	18
63	18209	1067.617298128658	14
63	18258	1071.926888951295	42
63	18286	1074.135990111486	21
63	18304	1075.739104955683	15
63	18350	1080.9	29
63	18382	1083.8	28
63	18407	1085.906081695414	20
63	18430	1087.810968380865	18
63	18483	1092.318734233343	44
63	18500	1093.82530149329	14
63	18529	1096.128143470033	22
63	18553	1098.136106638521	19
63	18579	1100.336622173214	21
63	18597	1101.946500093567	15
63	18617	1103.552192480648	15
63	18652	1106.454022088104	28
63	18669	1107.959217461391	14
63	18739	1114.8	48
63	18749	1115.7	8
63	18764	1116.802340712032	10
63	18777	1117.906954325793	10
63	18783	1118.110662738589	1
63	18797	1119.317286680302	11
63	18813	1120.519009537062	11
63	18857	1124.325456347922	37
63	18882	1126.433791134206	20
63	18930	1132.8	28
63	18953	1134.8	19
63	19004	1139.300851290395	44
63	19045	1142.807931017127	34
63	19122	1147.9	19
63	19167	1149.9	19
63	19197	1151.105917631976	11
63	19241	1153.014003408066	18
63	19299	1155.617470610813	25
63	19324	1156.620108715196	9
63	19378	1159.026073831422	23
63	19431	1161.729038008481	26
63	19498	1168.7	47
63	19508	1169.6	8
63	19539	1172.103540705433	24
63	19549	1172.909560711721	7
63	19576	1175.211685086648	22
63	19591	1176.31833875025	10
63	19605	1177.524467252705	11
63	19640	1180.427060702573	28
63	19665	1182.535462454519	20
63	19700	1187.9	19
63	19721	1189.7	17
63	19758	1192.808114529189	30
63	19789	1195.510630071339	26
63	19815	1197.715260134373	21
63	19819	1197.91839453809	1
63	19831	1198.721204963256	7
63	19843	1199.729743756271	9
63	19862	1201.232449581002	14
63	19882	1202.834678986666	15
63	19917	1205.935526328421	30
63	19998	1213.9	59
63	20020	1215.8	18
63	20053	1218.506079154266	26
63	20080	1220.806411607833	22
63	20104	1222.810263244772	19
63	20137	1225.719171257274	28
63	20154	1227.028688537179	12
63	20178	1229.035065928996	19
63	20202	1231.038458508449	19
63	20218	1232.244421722444	11
63	20232	1233.444889188022	11
63	20246	1234.445450193101	9
63	20266	1236.046641763575	15
63	20309	1239.947240716331	38
63	20396	1244.3	23
63	20417	1245.3	9
63	20443	1246.305749105506	9
63	20498	1248.712180082329	23
63	20532	1250.221476718756	14
63	20580	1252.223788155089	19
63	20614	1253.827417347279	15
63	20668	1256.133303262706	22
63	20735	1259.542127718569	33
63	20752	1260.848833908664	12
63	20777	1262.956364673443	20
63	20796	1264.458620498317	14
63	20804	1265.060166583828	5
63	20829	1267.162597218009	20
63	20918	1276.5	65
63	20939	1278.3	17
63	20997	1283.507443101222	51
63	21014	1284.817309686438	12
63	21021	1285.319797520967	4
63	21054	1288.025665840016	26
63	21070	1289.432533634	13
63	21094	1292.6	6
63	21129	1295.8	31
63	21162	1298.50678604711	26
63	21178	1299.910077073205	13
63	21218	1303.310453450911	33
63	21238	1304.914099075825	15
63	21254	1306.122520707664	11
63	21268	1307.330613183714	11
63	21287	1308.835339569556	14
63	21307	1310.435681025166	15
63	21327	1312.041994116912	15
63	21354	1314.348556048947	22
63	21365	1315.248761470192	8
63	21393	1319	10
63	21406	1320	9
63	21415	1320.70798695204	6
63	21425	1321.514130695966	7
63	21434	1322.023055363272	4
63	21444	1322.82427576222	7
63	21477	1325.731858557686	28
63	21506	1328.033937972991	22
63	21532	1330.241093174421	21
63	21544	1331.243998571859	9
63	21571	1333.553338850658	22
63	21590	1335.060627868006	14
63	21616	1337.268647544116	21
63	21660	1341.07275136724	37
63	21701	1346.1	21
63	21723	1348	18
63	21730	1348.507666844814	4
63	21751	1350.211266573099	16
63	21777	1352.412745934007	21
63	21783	1352.816605658905	3
63	21824	1356.323289343555	34
63	21831	1356.82727360888	4
63	21849	1358.23441962275	13
63	21861	1359.242492310356	9
63	21883	1361.049190771659	17
63	21904	1364.3	3
63	21938	1367.4	30
63	21957	1368.902800889967	14
63	21994	1372.006263560428	30
63	22003	1372.711948456693	6
63	22039	1375.912059843804	31
63	22067	1378.114335198577	21
63	22091	1380.124219743704	19
63	22114	1382.026747880246	18
63	22148	1385.030528854768	29
63	22170	1386.835377016582	17
63	22204	1391.6	16
63	22216	1392.5	8
63	22231	1393.802958636488	12
63	22263	1396.410546421098	25
63	22293	1399.019923383026	25
63	22323	1401.629172853525	25
63	22355	1404.229551578504	25
63	22385	1406.834549340773	25
63	22414	1409.335019074738	24
63	22494	1414.1	21
63	22558	1416.9	27
63	22590	1418.309197552697	13
63	22655	1421.611492767207	32
63	22681	1423.818310156009	21
63	22696	1424.920292382592	10
63	22749	1429.625477598311	46
63	22886	1436.3	43
63	22910	1438.4	20
63	22934	1440.402349345707	19
63	22954	1442.010605503255	15
63	22989	1445.112734962389	30
63	23014	1447.221672214615	20
63	23022	1447.825376541938	5
63	23051	1450.130509719154	22
63	23070	1451.832045076961	16
63	23157	1460.3	63
63	23169	1461.4	10
63	23189	1463.009451659887	15
63	23238	1467.316979659071	42
63	23258	1468.919345972439	15
63	23281	1470.819582816077	18
63	23311	1473.422175528976	25
63	23315	1473.628816349465	1
63	23339	1475.635245736868	19
63	23359	1477.243274950883	15
63	23368	1477.949649447074	6
63	23388	1479.554775436671	15
63	23404	1480.761477737674	11
63	23471	1488.6	46
63	23505	1491.7	30
63	23519	1492.704170688698	9
63	23554	1495.810205392527	30
63	23585	1498.317586999073	24
63	23617	1501.125293565982	27
63	23642	1503.234393908011	20
63	23659	1504.537860217406	12
63	23698	1510.1	21
63	23715	1511.7	15
63	23731	1512.904589507654	11
63	23738	1513.412309685737	4
63	23758	1515.020771489612	15
63	23767	1515.723402502807	6
63	23800	1518.430183702483	26
63	23837	1523.9	19
63	23859	1525.8	18
63	23882	1527.707043280634	18
63	23912	1530.110405822989	23
63	23926	1531.31447401617	11
63	23949	1533.217234584817	18
63	23969	1534.822217277225	15
63	23998	1539.4	14
63	24031	1542.2	27
63	24047	1543.60057891767	13
63	24094	1547.703405014029	40
63	24126	1550.304988962765	25
63	24148	1552.110435458113	17
63	24175	1554.414001794258	22
63	24185	1555.22053428544	7
63	24224	1558.527434919213	32
63	24277	1562.6	6
63	24308	1564.4	17
63	24325	1565.906441301691	14
63	24356	1568.41399432971	24
63	24391	1571.521048825423	30
63	24426	1574.428644198051	28
63	24557	1582.1	41
63	24582	1583.2	10
63	24616	1584.600667794335	13
63	24654	1586.304575684584	16
63	24691	1588.613200213989	22
63	24705	1589.814047580583	11
63	24727	1591.621866609736	17
63	24747	1593.22994882242	15
63	24764	1594.53201859383	12
63	24778	1595.732879554499	11
63	24793	1596.833475435806	10
63	24816	1598.74083082209	18
63	24833	1600.047918044099	12
63	24853	1601.851523157501	17
63	24867	1602.852154244746	9
63	24901	1607.7	17
63	24924	1609.7	19
63	24945	1611.404228720297	16
63	24959	1612.406100650015	9
63	24997	1615.811423109995	33
63	25027	1618.213898284122	23
63	25032	1618.519012538265	2
63	25081	1625.2	32
63	25101	1626.9	16
63	25123	1628.702262277591	17
63	25144	1630.406398151132	16
63	25170	1632.612823667094	21
63	25210	1636.014148333958	33
63	25241	1638.714291048485	26
63	25300	1646	40
63	25330	1648.7	26
63	25359	1651.207700515862	24
63	25395	1654.212519611527	29
63	25429	1657.222416578183	29
63	25455	1659.428448271684	21
63	25479	1661.429787575898	19
63	25513	1664.237021173583	27
63	25522	1664.945674423908	6
63	25564	1670.2	22
63	25576	1671.3	10
63	25592	1672.500188459747	11
63	25606	1673.707335215772	11
63	25622	1674.907786713712	11
63	25638	1676.113263979166	11
63	25653	1677.420996087054	12
63	25698	1682.8	28
63	25714	1684.1	12
63	25738	1686.100930974001	19
63	25754	1687.50269385433	13
63	25772	1688.904588490342	13
63	25792	1690.510409606042	15
63	25816	1692.514739914474	19
63	25841	1694.622301658126	20
63	25865	1696.632247693908	19
63	25900	1699.735745004437	30
63	26011	1705.4	34
63	26042	1706.7	12
63	26086	1708.601954066751	18
63	26164	1712.003699889932	33
63	26198	1713.50427593778	14
63	26230	1714.806334875874	12
63	26294	1719.4	14
63	26298	1719.7	2
63	26321	1721.602487895553	18
63	26353	1724.202617014533	25
63	26383	1726.812303456815	25
63	26417	1729.820658400316	29
63	26446	1732.126274323674	22
63	26450	1732.326736803973	1
63	26480	1734.9309302751	25
63	26519	1740	20
63	26550	1742.8	27
63	26578	1745.20775987667	23
63	26606	1747.616854717651	23
63	26630	1749.617866021912	19
63	26657	1751.92759115725	22
63	26686	1754.232481574373	22
63	26695	1754.940542026286	6
63	26710	1756.046121992944	10
63	26861	1765.2	52
63	26898	1766.8	15
63	26936	1768.40083338302	15
63	26960	1769.507274582203	10
63	27001	1772.607946806648	30
63	27019	1774.013645478398	13
63	27048	1776.517182435485	24
63	27067	1778.021631043074	14
63	27085	1779.631142391029	15
63	27124	1782.940695231756	32
63	27165	1788.1	21
63	27188	1790.1	19
63	27235	1794.202098713784	40
63	27253	1795.80458479245	15
63	27275	1797.612819616191	17
63	27297	1799.416939881087	17
63	27332	1802.322257430359	28
63	27427	1810.1	41
63	27484	1815.3	51
63	27525	1818.808053671938	34
63	27570	1822.715380699591	38
63	27595	1824.821108243158	20
63	27638	1828.522647769544	36
63	27671	1831.430354121704	28
63	27719	1836.8	28
63	27734	1838	11
63	27767	1840.907392907158	28
63	27816	1845.214303115456	42
63	27847	1847.922696737727	26
63	27949	1857.8	78
63	27985	1860.9	30
63	28006	1862.60566187598	16
63	28047	1866.11533976115	34
63	28083	1869.322675771484	31
63	28127	1874.4	24
63	28139	1875.5	10
63	28144	1875.801422772246	2
63	28168	1877.808920153285	19
63	28193	1879.911258876094	20
63	28204	1880.620685102761	6
63	28214	1881.426853431817	7
63	28228	1882.428020351363	9
63	28297	1890.9	49
63	28307	1891.8	8
63	28324	1893.102137813996	12
63	28362	1896.30315842698	31
63	28377	1897.606962138145	12
63	28409	1900.21649212155	25
63	28422	1901.321009641473	10
63	28442	1902.927019320225	15
63	28461	1904.435618675678	14
63	28481	1906.036354634511	15
63	28498	1907.538314730586	14
63	28523	1910.7	7
63	28545	1912.6	18
63	28558	1913.700367754506	10
63	28583	1915.804679891452	20
63	28599	1917.00569679143	11
63	28627	1919.413474990018	23
63	28637	1920.017856994038	5
63	28654	1921.52357971762	14
63	28679	1923.626442805993	20
63	28724	1928.7	27
63	28737	1929.9	11
63	28751	1930.909018141105	9
63	28776	1933.018683782219	20
63	28801	1935.126490468966	20
63	28822	1936.828629427232	16
63	28845	1938.737851324857	18
63	28894	1945.2	32
63	28915	1947	17
63	28937	1948.807373585049	17
63	28946	1949.510949222999	6
63	28960	1950.514585063526	9
63	28987	1952.815547754351	22
63	29124	1960.4	44
63	29179	1962.9	24
63	29251	1966.102626064138	31
63	29301	1968.306677488822	21
63	29363	1971.211702458695	28
63	29417	1973.61513372495	23
63	29509	1977.816771352399	41
63	29533	1978.817677402501	9
63	29543	1979.224657535145	3
63	29651	1985.6	36
63	29660	1986.2	5
63	29674	1987.409208686733	11
63	29700	1989.615622783165	21
63	29719	1991.124709332202	14
63	29733	1992.130966283398	9
63	29747	1993.340772791975	11
63	29766	1994.846449938628	14
63	29784	1996.253684797538	13
63	29796	1997.262593290828	9
63	29824	2001.2	12
63	29852	2003.7	24
63	29877	2005.80335916979	20
63	29909	2008.405270662899	25
63	29977	2014.410755725705	59
63	30000	2016.318386601902	18
63	30075	2025.3	53
63	30119	2029.2	38
63	30154	2032.100882520719	28
63	30203	2036.404015572722	42
63	30238	2039.50691522441	30
63	30288	2043.916524111089	43
63	30345	2048.820631789183	48
63	30376	2051.523949257537	26
63	30425	2055.83259331689	42
63	30460	2058.738154637641	28
63	30483	2060.642708994126	18
63	30509	2062.849131572362	21
63	30559	2067.24939262597	43
63	30618	2071.1	11
63	30704	2077	58
63	30722	2078.40836879644	13
63	30766	2082.216994220432	37
63	30781	2083.523772938609	12
63	30808	2085.829235426396	22
63	30829	2087.536157642932	16
63	30867	2090.738296868236	31
63	30889	2092.546165417014	17
63	30905	2093.946546844744	13
63	30948	2098.4	24
63	30961	2099.6	11
63	30993	2102.200061571286	25
63	31017	2104.207328016336	19
63	31050	2107.112011400919	28
63	31083	2111.5	15
63	31109	2113.8	22
63	31143	2116.603660257419	27
63	31147	2116.807236324271	1
63	31155	2117.413552135214	5
63	31161	2117.816873638852	3
63	31198	2120.919371084758	30
63	31222	2122.925023468912	19
63	31237	2124.034357273012	10
63	31256	2125.741020826477	16
63	31286	2128.142237521664	23
63	31366	2137.8	58
63	31425	2143	51
63	31436	2143.909646411677	8
63	31448	2144.710344035661	7
63	31454	2145.116454288634	3
63	31467	2146.021985966037	8
63	31499	2148.825367657148	27
63	31528	2151.330061860484	24
63	31568	2154.734103621527	33
63	31712	2163.7	57
63	31722	2164.4	6
63	31731	2165.102232395126	6
63	31752	2166.804926937571	16
63	31761	2167.505334626973	6
63	31779	2168.910138227575	13
63	31796	2170.215302745682	12
63	31832	2173.424929441859	31
63	31857	2176.8	8
63	31873	2178.3	14
63	31893	2180.101262347083	17
63	31910	2181.608854957548	14
63	31930	2183.417267335689	17
63	31935	2183.724275976855	2
63	31945	2184.528787505745	7
