file 12590 1369060330                                           
version 2
run Join-2-20130520-16:32:10-32715
attr configname Join
attr datetime 20130520-16:32:10
attr experiment "\"Join\""
attr inifile omnetpp.ini
attr iterationvars $0=32
attr iterationvars2 "$0=32, $repetition=2"
attr measurement $0=32
attr network Network
attr processid 32715
attr repetition 2
attr replication #2
attr resultdir results
attr runnumber 2
attr seedset 2

vector 2  Network.dyn_peer[0]  lookupHopsSig:vector  ETV
2	434 12156 287 4771 20.4 479.924305334003 556 0 6 1354 4086
