file 19812 1369149732                                           
version 2
run Join-12-20130520-16:32:11-32715
attr configname Join
attr datetime 20130520-16:32:11
attr experiment "\"Join\""
attr inifile omnetpp.ini
attr iterationvars $0=64
attr iterationvars2 "$0=64, $repetition=2"
attr measurement $0=64
attr network Network
attr processid 32715
attr repetition 2
attr replication #2
attr resultdir results
attr runnumber 12
attr seedset 12
vector 12  Network.dyn_peer[0]  lookupHopsSig:vector  ETV
12	438 19374 407 7191 20.020466473855 665.928085195811 806 0 10 2753 11893
