file 15161 1369149732                                           
version 2
run Join-6-20130520-16:32:10-32715
attr configname Join
attr datetime 20130520-16:32:10
attr experiment "\"Join\""
attr inifile omnetpp.ini
attr iterationvars $0=32
attr iterationvars2 "$0=32, $repetition=6"
attr measurement $0=32
attr network Network
attr processid 32715
attr repetition 6
attr replication #6
attr resultdir results
attr runnumber 6
attr seedset 6
vector 6  Network.dyn_peer[0]  lookupHopsSig:vector  ETV
6	434 14727 290 5415 20.230517726776 528.146431647473 657 0 8 1629 4971
