version 2
run Join-24-20130520-16:32:14-32715
attr configname Join
attr datetime 20130520-16:32:14
attr experiment "\"Join\""
attr inifile omnetpp.ini
attr iterationvars $0=128
attr iterationvars2 "$0=128, $repetition=4"
attr measurement $0=128
attr network Network
attr processid 32715
attr repetition 4
attr replication #4
attr resultdir results
attr runnumber 24
attr seedset 24

vector 24  Network.dyn_peer[0]  lookupHopsSig:vector  ETV
24	594	20.122495508584	5
24	612	24.3	3
24	620	25	6
24	631	25.908794267238	8
24	641	26.509135384587	5
24	652	27.409481349978	8
24	666	28.410413404849	9
24	686	32.2	2
24	690	32.5	2
24	696	32.903751283118	3
24	702	33.311672809976	3
24	706	33.521641932963	1
24	742	37.8	18
24	749	38.2	3
24	758	38.908988197734	6
24	766	39.510524104777	5
24	775	40.013557614376	4
24	791	41.420888205826	13
24	802	42.128965129406	6
24	810	42.731839060923	5
24	818	43.335686668683	5
24	835	44.639377997281	12
24	865	49.2	12
24	870	49.6	3
24	881	50.306047298796	6
24	887	50.709142208378	3
24	892	51.012231462296	2
24	896	51.217860733234	1
24	904	51.827372359969	5
24	911	52.128281686196	2
24	917	52.532050322621	3
24	936	56.3	3
24	940	56.6	2
24	945	56.900557266834	2
24	953	57.506348140308	5
24	959	57.913551638648	3
24	968	58.41617206675	4
24	978	59.216483762338	7
24	984	59.623383260871	3
24	1010	63	10
24	1014	63.3	2
24	1026	64.104805047591	7
24	1036	64.910789679996	7
24	1041	65.218799840739	2
24	1053	66.027516772945	7
24	1066	67.133005514293	10
24	1091	71	10
24	1100	71.8	7
24	1115	72.903660977238	10
24	1127	73.903776597531	9
24	1140	74.806254260306	8
24	1152	75.81554224073	9
24	1166	76.818585068323	9
24	1193	81.2	12
24	1204	82	7
24	1212	82.600119527201	5
24	1223	83.500132119438	8
24	1249	86.8	8
24	1253	87.1	2
24	1269	88.302707413125	11
24	1278	89.005534127349	6
24	1286	89.609345365279	5
24	1294	90.011723734029	3
24	1303	90.72171524737	6
24	1331	95	10
24	1339	95.7	6
24	1352	96.601665098485	8
24	1362	97.402383434143	7
24	1374	98.206540507892	7
24	1381	98.716280787066	4
24	1389	99.318227460908	5
24	1412	102.5	5
24	1416	102.8	2
24	1425	103.505010167045	6
24	1434	104.008364133372	4
24	1443	104.715320508548	6
24	1454	105.618179823551	8
24	1466	106.420831698309	7
24	1475	107.121766609509	6
24	1491	108.331421006397	11
24	1497	108.732626289136	3
24	1522	112.7	7
24	1531	113.5	7
24	1536	113.805075200628	2
24	1544	114.208843617056	3
24	1548	114.413229949873	1
24	1560	115.420186523639	9
24	1565	115.720287164682	2
24	1574	116.224205975336	4
24	1579	116.532727510751	2
24	1585	116.936884978675	3
24	1609	120.6	6
24	1615	121.1	4
24	1625	121.902464216696	7
24	1641	123.1122031797	11
24	1658	124.413589508135	12
24	1693	129.7	17
24	1706	130.7	9
24	1713	131.209330248862	4
24	1718	131.515465381759	2
24	1728	132.117524310654	5
24	1737	132.826771737668	6
24	1743	133.230113398726	3
24	1764	136.3	3
24	1768	136.6	2
24	1773	136.90973743109	2
24	1779	137.31325466359	3
24	1783	137.513904088535	1
24	1792	138.023133108103	4
24	1799	138.529072737802	4
24	1809	139.331032701478	7
24	1823	140.33261585479	9
24	1854	145.3	13
24	1867	146.3	9
24	1876	147.006376333825	6
24	1885	147.710026565323	6
24	1898	148.618551491453	8
24	1904	149.028502095239	3
24	1918	150.036724039688	9
24	1924	150.439959733827	3
24	1933	151.144326646554	6
24	1937	151.348529224191	1
24	1950	152.255670755515	8
24	1982	157.4	14
24	1993	158.2	7
24	1999	158.601662665563	3
24	2005	159.010993979125	3
24	2013	159.61259442872	5
24	2018	159.917531565775	2
24	2041	162.5	5
24	2045	162.8	2
24	2052	163.302925534946	4
24	2058	163.703441558516	3
24	2065	164.007627616672	2
24	2071	164.40858111711	3
24	2082	165.316639637989	8
24	2086	165.517332640162	1
24	2091	165.817442587585	2
24	2106	166.922558645327	10
24	2161	170.7	7
24	2181	171.400002187059	6
24	2193	171.806945049612	3
24	2201	172.013255200153	1
24	2221	173.022105745589	9
24	2230	173.723174616165	6
24	2252	176.4	4
24	2258	176.9	4
24	2274	178.101442367918	11
24	2282	178.710713276522	5
24	2295	179.812419378164	10
24	2309	180.81934852544	9
24	2317	181.428277121959	5
24	2327	182.029586404913	5
24	2348	186.3	3
24	2356	187	6
24	2365	187.701549220194	6
24	2378	188.609204762628	8
24	2386	189.211116046787	5
24	2390	189.412852871739	1
24	2400	190.016383906455	5
24	2470	195.2	12
24	2477	195.8	5
24	2488	196.504249034274	6
24	2493	196.810176455892	2
24	2502	197.517401119092	6
24	2507	197.827318662911	2
24	2516	198.33388174176	4
24	2534	202.3	3
24	2541	202.9	5
24	2549	203.502658077827	5
24	2558	204.002988439215	4
24	2565	204.503327222488	4
24	2572	205.009240267705	4
24	2581	205.71014633258	6
24	2590	206.211629946663	4
24	2597	206.720924984757	4
24	2617	210.2	2
24	2627	211.1	8
24	2642	212.208285754786	10
24	2648	212.609100999142	3
24	2653	212.918991927969	2
24	2658	213.219896548743	2
24	2664	213.629827189688	3
24	2668	213.838055688515	1
24	2675	214.143684160071	2
24	2696	218.5	5
24	2714	220	14
24	2722	220.609910891435	5
24	2730	221.213297974224	5
24	2742	222.017043027404	7
24	2748	222.426138516912	3
24	2757	223.131109730341	6
24	2765	223.735195846485	5
24	2772	224.036320633554	2
24	2805	229.5	15
24	2810	229.9	3
24	2821	230.601177314396	6
24	2829	231.204579475074	5
24	2834	231.511583221146	2
24	2846	232.314274535978	7
24	2852	232.714340476969	3
24	2859	233.216284666212	4
24	2880	236.3	3
24	2887	236.9	5
24	2895	237.501708661993	5
24	2900	237.808332100482	2
24	2912	238.615124729184	7
24	2917	238.92413144973	2
24	2924	239.334613559646	3
24	2929	239.638495332074	2
24	2940	240.340437233193	6
24	2963	244.5	5
24	2967	244.8	2
24	2976	245.509386724373	6
24	2981	245.818520316402	2
24	2989	246.226305646607	3
24	2995	246.634924004806	3
24	3007	247.642718873447	9
24	3017	248.252038697587	5
24	3026	248.953162102415	6
24	3047	252.3	3
24	3052	252.7	3
24	3066	253.901065410794	11
24	3076	254.509712986484	5
24	3104	259	10
24	3107	259.2	1
24	3115	259.80828093515	5
24	3128	260.712144365655	8
24	3141	261.633696964067	8
24	3153	262.440618665991	7
24	3167	263.645330643665	11
24	3176	264.14576769787	4
24	3197	268.3	3
24	3205	269	6
24	3212	269.507446200021	4
24	3218	269.908203271923	3
24	3224	270.112609962969	1
24	3247	274.5	5
24	3254	275.1	5
24	3264	275.902783487718	7
24	3275	276.609789809591	6
24	3283	277.217481444633	5
24	3291	277.827468965217	5
24	3302	278.533612522297	6
24	3312	279.341809109233	7
24	3325	280.251245643822	8
24	3334	280.957996092277	6
24	3344	281.763127052536	7
24	3373	285.2	12
24	3386	286.2	9
24	3396	287.004716937011	7
24	3406	287.805478177005	7
24	3416	288.406285451554	5
24	3426	289.207672431735	7
24	3440	290.215171964634	9
24	3463	294.5	5
24	3471	295.2	6
24	3478	295.702703933313	4
24	3494	296.71437783795	9
24	3499	297.017553451227	2
24	3511	297.930750354711	8
24	3540	301.1	11
24	3546	301.6	4
24	3558	302.402356992277	7
24	3568	303.211784486264	7
24	3576	303.818790520542	5
24	3590	304.82234549786	9
24	3599	305.531026680011	6
24	3612	306.438159004587	8
24	3631	310.3	3
24	3635	310.6	2
24	3641	311.001296050059	3
24	3648	311.503528544438	4
24	3653	311.811026205926	2
24	3662	312.312712243253	4
24	3669	312.819012982703	4
24	3676	313.323677207412	4
24	3682	313.731645323185	3
24	3690	314.139145403404	3
24	3697	314.642739044697	4
24	3721	318.6	6
24	3729	319.3	6
24	3743	320.30607872491	9
24	3748	320.606287096664	2
24	3760	321.610848382401	9
24	3779	324.1	1
24	3786	324.7	5
24	3792	325.101198637916	3
24	3802	325.903962639316	7
24	3814	326.706997282758	7
24	3819	327.010616095163	2
24	3823	327.211275880629	1
24	3830	327.719460175576	4
24	3838	328.120830157858	3
24	3842	328.330133905834	1
24	3847	328.639016886564	2
24	3853	329.04579912395	3
24	3868	330.146957143074	10
24	3889	334.3	3
24	3899	335.2	8
24	3907	335.805090051454	5
24	3918	336.514202644424	6
24	3928	337.318609468989	7
24	3935	337.822272463425	4
24	3945	338.42294508989	5
24	3969	342.6	6
24	3977	343.3	6
24	3984	343.800464425389	4
24	4001	345.012304465958	11
24	4005	345.218771584943	1
24	4013	345.826153393193	5
24	4026	346.639117055574	7
24	4034	347.241377894206	5
24	4041	347.747626503399	4
24	4064	349.551967052441	17
24	4076	350.266197672305	6
24	4106	355.2	12
24	4111	355.6	3
24	4115	355.801878341413	1
24	4125	356.409378245281	5
24	4131	356.81069689721	3
24	4135	357.012992807825	1
24	4145	357.816209983486	7
24	4157	358.616997890393	7
24	4170	359.722695251393	10
24	4182	360.527300898092	7
24	4190	361.136567206596	5
24	4208	364.2	2
24	4212	364.5	2
24	4219	365.003093896186	4
24	4227	365.51867180039	4
24	4236	366.022546211134	4
24	4242	366.427769232196	3
24	4246	366.630073539076	1
24	4251	366.934845953426	2
24	4256	367.239119148653	2
24	4282	370.8	8
24	4290	371.5	6
24	4300	372.105186570312	5
24	4305	372.406552140563	2
24	4311	372.814858270645	3
24	4316	373.116931820089	2
24	4322	373.518246913185	3
24	4334	374.322660724055	7
24	4344	375.12269204213	7
24	4350	375.531115416702	3
24	4362	376.335879045637	7
24	4388	380.9	9
24	4393	381.3	3
24	4406	382.20877446342	8
24	4412	382.614835935258	3
24	4419	383.124452500731	4
24	4425	383.533899117963	3
24	4436	384.237193366748	6
24	4460	388.6	6
24	4465	389	3
24	4471	389.408861548565	3
24	4484	390.313410083183	8
24	4490	390.720639581817	3
24	4496	391.125949003171	3
24	4504	391.73391648331	5
24	4512	392.135869025995	3
24	4517	392.436276082554	2
24	4524	392.93697126719	4
24	4532	393.539559966189	5
24	4541	394.041150082359	4
24	4546	394.350082543394	2
24	4571	398.8	8
24	4582	399.8	9
24	4597	400.902918995225	10
24	4605	401.510286149908	5
24	4610	401.811357984351	2
24	4617	402.119806315478	2
24	4621	402.322239334788	1
24	4632	403.230135346825	8
24	4655	406.5	5
24	4660	406.9	3
24	4665	407.202270598434	2
24	4673	407.806541746111	5
24	4682	408.315236849611	4
24	4691	409.015776350312	6
24	4713	412.4	4
24	4719	412.9	4
24	4726	413.404900964854	4
24	4732	413.811143411357	3
24	4739	414.119554895272	2
24	4750	415.021207378003	8
24	4759	415.724899945842	6
24	4769	416.33462794689	5
24	4792	420.5	5
24	4796	420.8	2
24	4802	421.206790856537	3
24	4810	421.811599379481	5
24	4820	422.41561243061	5
24	4827	422.916395798065	4
24	4833	423.320242194421	3
24	4838	423.624788571376	2
24	4848	424.232554993635	5
24	4868	428.4	4
24	4871	428.6	1
24	4875	428.807879073855	1
24	4881	429.211439412238	3
24	4889	429.811988548042	5
24	4898	430.317803197562	4
24	4904	430.719924327852	3
24	4925	434.6	6
24	4929	434.9	2
24	4940	435.804700150433	8
24	4956	437.013476675792	11
24	4960	437.218082267629	1
24	4969	437.920176900558	6
24	4977	438.324054098332	3
24	4997	442.2	2
24	5002	442.6	3
24	5015	443.706141237993	10
24	5031	444.907557305329	11
24	5036	445.216667879362	2
24	5040	445.421787763811	1
24	5046	445.831545107404	3
24	5055	446.340657500349	4
24	5063	446.943567992538	5
24	5067	447.14800491503	1
24	5076	447.857390781343	6
24	5105	451.1	11
24	5110	451.5	3
24	5115	451.80331778611	2
24	5124	452.304714923072	4
24	5131	452.806476637347	4
24	5139	453.414149619972	5
24	5146	453.916520102548	4
24	5153	454.218314194604	2
24	5159	454.624722923658	3
24	5166	455.129111888069	4
24	5182	456.333962664315	11
24	5187	456.640617268613	2
24	5207	460.2	2
24	5220	461.4	11
24	5225	461.702655026908	2
24	5237	462.512611413947	7
24	5251	463.715818554358	11
24	5268	465.017336504812	12
24	5274	465.424387236636	3
24	5295	468.3	3
24	5303	469	6
24	5312	469.704952256495	6
24	5322	470.313742774549	5
24	5326	470.521798831581	1
24	5333	471.022066639555	4
24	5339	471.428295124681	3
24	5369	475.2	12
24	5372	475.4	1
24	5377	475.709275107863	2
24	5388	476.417402039123	6
24	5399	477.317856926989	8
24	5405	477.724288078366	3
24	5415	478.329590618937	5
24	5431	482.1	1
24	5441	483	8
24	5450	483.70565654094	6
24	5458	484.1128960628	3
24	5466	484.715303867767	5
24	5472	485.120878333778	3
24	5482	485.928179892122	7
24	5491	486.430962934444	4
24	5521	491.2	12
24	5529	491.9	6
24	5543	492.90645809058	9
24	5551	493.510631083898	5
24	5565	494.516328414935	9
24	5578	495.625578851255	10
24	5593	496.733708385329	10
24	5605	497.736666101494	9
24	5616	498.440792720643	6
24	5641	502.7	7
24	5650	503.5	7
24	5660	504.107689390801	5
24	5666	504.508236289638	3
24	5670	504.717617919506	1
24	5675	505.022907642191	2
24	5681	505.429262281614	3
24	5688	505.929871302649	4
24	5695	506.239730090188	2
24	5716	510.3	3
24	5722	510.8	4
24	5728	511.201540081982	3
24	5737	511.908964721112	6
24	5746	512.413927147764	4
24	5753	512.915196200372	4
24	5760	513.416809753766	4
24	5766	513.820142393312	3
24	5777	514.520745664245	6
24	5801	518.8	8
24	5806	519.2	3
24	5814	519.801632281921	5
24	5825	520.506316421287	6
24	5832	521.015720227566	4
24	5841	521.718238565419	6
24	5864	523.626389404151	18
24	5891	526.9	9
24	5896	527.3	3
24	5907	528.000737591569	6
24	5912	528.302843518291	2
24	5918	528.7087800173	3
24	5940	532.4	4
24	5944	532.7	2
24	5948	532.909169348264	1
24	5956	533.511168241498	5
24	5962	533.912662250629	3
24	5971	534.413993271716	4
24	5980	535.118213636771	6
24	5986	535.526715374382	3
24	6013	539.1	11
24	6017	539.4	2
24	6031	540.400306894034	9
24	6043	541.406059938238	9
24	6058	542.512681786736	10
24	6066	543.115621568522	5
24	6073	543.616313834768	4
24	6081	544.02380774511	3
24	6110	549.1	11
24	6122	550	8
24	6128	550.40098898861	3
24	6138	551.210170445441	7
24	6151	552.118755465248	8
24	6159	552.720030100399	5
24	6183	556.6	6
24	6187	556.9	2
24	6191	557.100657922804	1
24	6197	557.504163157939	3
24	6206	558.009974287747	4
24	6213	558.512819079152	4
24	6218	558.814901933328	2
24	6239	562.6	6
24	6247	563.3	6
24	6253	563.704991724255	3
24	6264	564.407193891579	6
24	6271	564.912526013309	4
24	6279	565.512738812321	5
24	6295	566.714717554596	11
24	6303	567.314778136291	5
24	6314	568.023426462666	6
24	6321	568.530165542736	4
24	6335	569.739182636362	11
24	6361	572.8	8
24	6366	573.2	3
24	6379	574.10313973031	8
24	6386	574.605887459786	4
24	6393	575.115530095444	4
24	6400	575.620980144712	4
24	6410	576.22996324145	5
24	6421	577.130573910588	8
24	6429	577.737941897235	5
24	6437	578.144232523576	3
24	6466	583.3	13
24	6471	583.7	3
24	6488	585.003833564997	12
24	6498	585.806362120595	7
24	6509	586.511563713825	6
24	6532	590.5	5
24	6541	591.3	7
24	6553	592.105935047615	7
24	6561	592.709687449908	5
24	6566	593.017644656222	2
24	6572	593.42330461591	3
24	6583	594.128630679976	6
24	6593	594.932218885684	7
24	6617	598.6	6
24	6626	599.4	7
24	6638	600.207273561204	7
24	6645	600.712498058221	4
24	6652	601.214200790469	4
24	6656	601.423610977868	1
24	6662	601.825170490811	3
24	6668	602.029611788028	1
24	6692	606.6	6
24	6699	607.2	5
24	6704	607.507234132669	2
24	6714	608.109284226756	5
24	6725	609.012640862431	8
24	6735	609.816795465691	7
24	6765	613.2	12
24	6776	614	7
24	6785	614.703988876068	6
24	6794	615.406920600875	6
24	6806	616.211442690998	7
24	6815	616.914899528169	6
24	6821	617.322084550229	3
24	6832	618.031983796826	6
24	6844	619.038874387673	9
24	6852	619.643443402624	5
24	6856	619.853181383052	1
24	6881	622.7	7
24	6890	623.5	7
24	6901	624.208932711288	6
24	6910	624.910724063442	6
24	6920	625.713970333503	7
24	6933	626.62163950971	8
24	6973	630.3	3
24	6977	630.6	2
24	6983	631.002056373155	3
24	6990	631.51106978004	4
24	7003	632.418812739622	8
24	7009	632.827550251892	3
24	7016	633.333394614279	4
24	7039	636.5	5
24	7050	637.5	9
24	7060	638.105535027084	5
24	7069	638.811139210213	6
24	7080	639.720884509784	8
24	7092	640.530504960749	7
24	7101	641.234199736463	6
24	7106	641.538312763183	2
24	7124	642.94414355285	13
24	7133	643.645741409484	6
24	7147	644.653123403106	9
24	7158	645.555719659142	8
24	7178	648.2	2
24	7183	648.6	3
24	7191	649.203330049219	5
24	7197	649.605234511666	3
24	7206	650.109128728626	4
24	7215	650.810095704536	6
24	7248	655.5	15
24	7259	656.3	7
24	7268	657.000685934727	6
24	7279	657.905147413671	8
24	7292	658.807718006397	8
24	7301	659.514033118808	6
24	7311	660.118936962443	5
24	7317	660.522548573449	3
24	7343	664.8	8
24	7351	665.5	6
24	7357	665.903886767406	3
24	7369	666.709767349221	7
24	7377	667.317064271448	5
24	7383	667.72560742018	3
24	7406	670.5	5
24	7411	670.9	3
24	7420	671.602086299285	6
24	7429	672.107739583977	4
24	7435	672.509893620292	3
24	7442	673.011807038118	4
24	7448	673.416202315976	3
24	7453	673.722274050311	2
24	7460	674.025416784751	2
24	7486	678.8	8
24	7490	679.1	2
24	7495	679.408380884253	2
24	7506	680.108925671882	6
24	7513	680.609250089989	4
24	7520	681.115811601168	4
24	7529	681.824245771373	6
24	7550	684.6	6
24	7558	685.3	6
24	7562	685.508233502814	1
24	7571	686.014281448278	4
24	7580	686.718645015899	6
24	7606	690.8	8
24	7611	691.2	3
24	7619	691.805688321585	5
24	7632	692.707579691148	8
24	7642	693.513523423586	7
24	7654	694.319532289139	7
24	7664	695.124637025736	7
24	7672	695.733250563062	5
24	7681	696.233787315512	4
24	7711	701.2	12
24	7722	702	7
24	7731	702.708405103138	6
24	7741	703.512938678049	7
24	7755	704.516526414575	9
24	7761	704.923345662834	3
24	7770	705.627430602986	6
24	7775	705.930663096293	2
24	7790	707.036926928584	10
24	7813	710.5	5
24	7818	710.9	3
24	7822	711.10227559176	1
24	7829	711.420039020531	2
24	7834	711.723294984261	2
24	7842	712.133052174363	3
24	7849	712.634636000606	4
24	7858	713.342410392234	6
24	7872	714.343617371796	9
24	7904	719.4	14
24	7908	719.7	2
24	7912	719.907368320249	1
24	7922	720.510860586505	5
24	7929	721.013825338416	4
24	7936	721.514970987165	4
24	7945	722.024026999159	4
24	7965	726.5	5
24	7971	727	4
24	7981	727.807714809454	7
24	7993	728.611165455547	7
24	8000	729.114198531622	4
24	8009	729.818846702952	6
24	8017	730.221234971619	3
24	8026	730.926846141574	6
24	8047	734.5	5
24	8054	735.1	5
24	8062	735.705392709192	5
24	8070	736.108360550428	3
24	8080	736.912829169862	7
24	8091	737.819336985117	8
24	8104	738.727379457433	8
24	8120	742.1	1
24	8126	742.6	4
24	8132	743.003071141131	3
24	8139	743.507872248524	4
24	8145	743.917691244619	3
24	8162	745.224396490609	12
24	8168	745.633769763061	3
24	8178	746.241626817288	5
24	8185	746.746672395253	4
24	8192	747.250528903537	4
24	8197	747.560458017276	2
24	8202	747.869917490417	2
24	8223	750.4	4
24	8227	750.7	2
24	8237	751.506801703611	7
24	8248	752.214893410114	6
24	8253	752.52232989715	2
24	8263	753.331078591051	7
24	8274	754.036007324377	6
24	8288	755.242989073597	11
24	8302	756.246976903338	9
24	8314	757.255419454847	9
24	8322	757.863369299722	5
24	8335	758.769550161265	8
24	8358	762.5	5
24	8364	763	4
24	8369	763.300477228078	2
24	8376	763.804656335638	4
24	8387	764.505753897685	6
24	8398	765.409067421353	8
24	8426	769	10
24	8430	769.3	2
24	8441	770.009522178368	6
24	8447	770.409828589399	3
24	8452	770.713730707456	2
24	8457	771.017012312422	2
24	8464	771.520903642531	4
24	8473	772.030068239871	4
24	8500	776.9	9
24	8506	777.4	4
24	8512	777.808889570112	3
24	8523	778.419516024268	5
24	8530	778.924924591614	4
24	8539	779.631280425667	6
24	8552	780.533133602255	8
24	8581	785.1	11
24	8586	785.5	3
24	8592	785.904392023505	3
24	8606	786.912027063879	9
24	8617	787.815577307747	8
24	8625	788.215824926808	3
24	8633	788.82278110093	5
24	8639	789.225599662692	3
24	8662	792.5	5
24	8668	793	4
24	8674	793.404179064561	3
24	8684	794.008019219126	5
24	8695	794.914721033555	8
24	8755	799.2	12
24	8761	799.7	4
24	8768	800.007137474648	2
24	8782	801.212758835635	11
24	8794	802.014601268153	7
24	8805	802.916854226693	8
24	8811	803.31989280562	3
24	8816	803.627820526425	2
24	8846	807.2	12
24	8861	808.4	11
24	8871	809.207702944539	7
24	8883	810.017105368712	7
24	8891	810.622418703656	5
24	8901	811.428233859041	7
24	8912	812.134540934609	6
24	8925	813.239761897611	10
24	8932	813.746237952189	4
24	8942	814.353802355457	5
24	8951	815.05750973252	6
24	8972	818.4	4
24	8981	819.2	7
24	8990	819.908282494088	6
24	8999	820.6115370715	6
24	9008	821.319592898156	6
24	9017	822.028956465291	6
24	9025	822.636060939785	5
24	9030	822.943307571813	2
24	9041	823.843498567269	8
24	9046	824.152145885891	2
