file 22002 1369060340                                           
version 2
run Join-40-20130520-16:32:19-32715
attr configname Join
attr datetime 20130520-16:32:19
attr experiment "\"Join\""
attr inifile omnetpp.ini
attr iterationvars $0=512
attr iterationvars2 "$0=512, $repetition=0"
attr measurement $0=512
attr network Network
attr processid 32715
attr repetition 0
attr replication #0
attr resultdir results
attr runnumber 40
attr seedset 40

vector 40  Network.dyn_peer[0]  lookupHopsSig:vector  ETV
40	441 21561 1663 16049 20.007517177697 1326.533743038627 846 1 31 9337 132275
