version 2
run Join-11-20130520-16:32:11-32715
attr configname Join
attr datetime 20130520-16:32:11
attr experiment "\"Join\""
attr inifile omnetpp.ini
attr iterationvars $0=64
attr iterationvars2 "$0=64, $repetition=1"
attr measurement $0=64
attr network Network
attr processid 32715
attr repetition 1
attr replication #1
attr resultdir results
attr runnumber 11
attr seedset 11

vector 11  Network.dyn_peer[0]  lookupHopsSig:vector  ETV
11	395	20.4	4
11	400	20.8	3
11	404	21.001435786441	1
11	411	21.508528796655	4
11	423	22.309262494046	7
11	448	26.7	7
11	454	27.2	4
11	462	27.802693035441	5
11	468	28.00574424493	1
11	474	28.412311332995	3
11	480	28.821553678874	3
11	501	32.3	3
11	507	32.8	4
11	512	33.105336939792	2
11	519	33.612310956736	4
11	530	34.321422173365	6
11	537	34.829233484829	4
11	542	35.133388521526	2
11	567	38.7	7
11	574	39.3	5
11	579	39.608903067004	2
11	589	40.218127569424	5
11	597	40.819865317512	5
11	608	41.727104430137	8
11	616	42.136528589454	3
11	635	46.1	1
11	639	46.4	2
11	643	46.606487221983	1
11	648	46.912056602015	2
11	652	47.116534313593	1
11	657	47.424616407894	2
11	662	47.730122802606	2
11	669	48.037506292133	2
11	691	52.4	4
11	696	52.8	3
11	702	53.208406854334	3
11	710	53.81270151503	5
11	717	54.113971997581	2
11	722	54.423499225354	2
11	745	58.5	5
11	749	58.8	2
11	755	59.209117954869	3
11	760	59.512119764568	2
11	765	59.815256556136	2
11	775	60.327069179162	4
11	798	64.5	5
11	804	65	4
11	811	65.506719429083	4
11	821	66.116319055557	5
11	831	66.921228102741	7
11	838	67.427182969629	4
11	862	70.6	6
11	868	71.1	4
11	875	71.609089517144	4
11	884	72.111369885865	4
11	894	72.912178218115	7
11	899	73.219307847346	2
11	906	73.722327078985	4
11	928	76.4	4
11	935	77	5
11	941	77.401364845149	3
11	947	77.804128294992	3
11	955	78.114775549058	2
11	976	82.3	3
11	987	83.209659308965	8
11	995	83.813259158846	5
11	1005	84.416837051298	5
11	1028	88.5	5
11	1035	89.1	5
11	1042	89.600353494139	4
11	1053	90.307716588847	6
11	1060	90.811791286092	4
11	1065	91.118271750817	2
11	1088	94.5	5
11	1093	94.9	3
11	1098	95.206857073914	2
11	1104	95.613915916505	3
11	1113	96.118152453073	4
11	1121	96.718703301465	5
11	1144	100.5	5
11	1148	100.8	2
11	1156	101.40314782046	5
11	1161	101.705625816893	2
11	1169	102.105758893787	3
11	1176	102.606300046859	4
11	1181	102.908466961256	2
11	1186	103.218263894291	2
11	1212	106.8	8
11	1217	107.2	3
11	1223	107.607956578801	3
11	1231	108.01273914518	3
11	1236	108.319268792839	2
11	1242	108.728423822919	3
11	1246	108.930296791257	1
11	1251	109.233855091997	2
11	1258	109.74258726197	4
11	1267	110.243119060261	4
11	1275	110.851060518476	5
11	1282	111.357200221757	4
11	1293	112.063677940638	6
11	1299	112.466803388215	3
11	1307	113.071693688848	5
11	1329	116.4	4
11	1338	117.2	7
11	1344	117.603605798841	3
11	1354	118.204015096199	5
11	1358	118.406485077695	1
11	1377	122.1	1
11	1382	122.5	3
11	1391	123.205523982115	6
11	1397	123.606307780143	3
11	1407	124.213434507554	5
11	1414	124.722956262364	4
11	1418	124.929180282243	1
11	1444	128.8	8
11	1450	129.3	4
11	1458	129.908144408734	5
11	1464	130.110990002459	1
11	1472	130.712897218597	5
11	1479	131.218473318278	4
11	1486	131.720232353106	4
11	1499	132.626877828473	8
11	1520	136.3	3
11	1525	136.7	3
11	1531	137.107906135267	3
11	1535	137.309727796807	1
11	1543	137.911435698309	5
11	1551	138.31749850282	3
11	1555	138.520489405142	1
11	1578	142.5	5
11	1584	143	4
11	1593	143.703411569711	6
11	1601	144.01295854122	2
11	1606	144.321751101842	2
11	1614	144.922882278997	5
11	1640	148.8	8
11	1645	149.2	3
11	1653	149.800277326565	5
11	1662	150.307461138348	4
11	1668	150.711687738107	3
11	1691	154.5	5
11	1695	154.8	2
11	1702	155.301586134964	4
11	1713	156.008465497432	6
11	1738	160.7	7
11	1745	161.3	5
11	1752	161.805243408263	4
11	1758	162.01123990931	1
11	1783	166.7	7
11	1791	167.4	6
11	1797	167.80362958719	3
11	1803	168.012243514042	1
11	1808	168.316447847007	2
11	1826	172	0
11	1831	172.4	3
11	1835	172.602218770922	1
11	1844	173.302759194608	6
11	1851	173.810692015293	4
11	1860	174.311272605238	4
11	1882	178.4	4
11	1890	179.1	6
11	1896	179.509028368366	3
11	1908	180.313211732415	7
11	1917	181.01865560426	6
11	1963	184.4	4
11	1968	184.8	3
11	1973	185.108970154079	2
11	1979	185.511206538833	3
11	1990	186.218602659341	6
11	1996	186.620945544451	3
11	2002	187.028633634902	3
11	2010	187.633457245835	5
11	2031	190.3	3
11	2036	190.7	3
11	2040	190.905721627068	1
11	2046	191.309464982784	3
11	2051	191.614426889634	2
11	2061	192.221108599887	5
11	2067	192.626350697502	3
11	2087	196.2	2
11	2094	196.8	5
11	2103	197.405821889503	5
11	2108	197.70997998502	2
11	2115	198.018684829877	2
11	2119	198.223160877659	1
11	2140	202.3	3
11	2147	202.9	5
11	2155	203.503177219112	5
11	2159	203.712681331738	1
11	2167	204.12000220239	3
11	2173	204.528832270091	3
11	2180	204.940725491172	3
11	2186	205.347376717146	3
11	2192	205.754965618183	3
11	2199	206.06006490204	2
11	2205	206.46440482268	3
11	2225	210.3	3
11	2229	210.6	2
11	2235	211.002903775759	3
11	2242	211.508835934332	4
11	2247	211.817712125178	2
11	2253	212.023586467407	1
11	2261	212.536669060874	4
11	2265	212.739547878505	1
11	2269	212.942051560647	1
11	2275	213.350827043795	3
11	2283	213.862098559487	4
11	2289	214.068527752169	1
11	2296	214.578061087032	4
11	2300	214.780901302931	1
11	2320	218.3	3
11	2323	218.5	1
11	2328	218.807970145728	2
11	2332	219.011218204413	1
11	2339	219.520867900113	4
11	2348	220.029153201827	4
11	2355	220.533471305146	4
11	2360	220.83892915846	2
11	2365	221.145412463095	2
11	2386	224.3	3
11	2391	224.7	3
11	2397	225.105021697843	3
11	2405	225.708514708135	5
11	2416	226.416303640432	6
11	2437	230.3	3
11	2441	230.6	2
11	2446	230.909824229842	2
11	2453	231.418217113919	4
11	2457	231.624294272398	1
11	2468	232.326027722642	6
11	2472	232.527062729449	1
11	2478	232.929845495094	3
11	2484	233.339346275336	3
11	2490	233.744187754112	3
11	2509	236.2	2
11	2513	236.5	2
11	2518	236.808115250887	2
11	2526	237.321438782372	4
11	2531	237.626761184142	2
11	2536	237.932661390461	2
11	2545	238.439444886064	4
11	2553	238.946361017526	4
11	2560	239.456084531769	4
11	2564	239.663637368117	1
11	2589	242.7	7
11	2592	242.9	1
11	2597	243.203164891847	2
11	2609	244.006973596533	7
11	2616	244.507253109157	4
11	2626	245.216255973568	6
11	2647	248.3	3
11	2651	248.6	2
11	2656	248.901752148699	2
11	2662	249.3023446363	3
11	2669	249.804459648053	4
11	2677	250.210447186184	3
11	2684	250.717117527128	4
11	2702	254	0
11	2708	254.5	4
11	2715	255.006934500855	4
11	2720	255.309958956175	2
11	2726	255.71980074843	3
11	2735	256.221891751425	4
11	2739	256.431359931084	1
11	2745	256.832085623568	3
11	2767	260.4	4
11	2774	261	5
11	2782	261.602718994629	5
11	2790	262.011444508125	3
11	2798	262.617746975707	5
11	2803	262.918077419885	2
11	2809	263.323872070028	3
11	2815	263.724768623157	3
11	2824	264.136782022117	3
11	2830	264.54391740053	3
11	2847	268	0
11	2852	268.4	3
11	2857	268.700963657037	2
11	2863	269.108897024951	3
11	2868	269.409176788103	2
11	2873	269.710864110634	2
11	2894	272.3	3
11	2900	272.8	4
11	2906	273.202409929516	3
11	2913	273.707053145288	4
11	2923	274.223254011279	4
11	2928	274.524464015922	2
11	2932	274.731826585385	1
11	2940	275.241330776137	4
11	2962	278.4	4
11	2966	278.7	2
11	2971	279.006685331745	2
11	2979	279.612403973033	5
11	2990	280.320320117784	6
11	2998	280.928243724301	5
11	3006	281.532868002012	5
11	3011	281.836787879289	2
11	3029	284	0
11	3033	284.3	2
11	3040	284.800760413715	4
11	3047	285.310553551734	4
11	3052	285.613336380485	2
11	3062	286.215819883048	5
11	3068	286.624872557077	3
11	3074	287.033205656226	3
11	3080	287.442695214332	3
11	3084	287.646449430922	1
11	3107	290.5	5
11	3114	291.1	5
11	3122	291.707678841261	5
11	3131	292.210269732539	4
11	3137	292.614788515263	3
11	3144	293.120426728686	4
11	3166	296.4	4
11	3171	296.8	3
11	3178	297.304479663895	4
11	3184	297.705645886444	3
11	3192	298.112745696106	3
11	3212	302.2	2
11	3217	302.6	3
11	3223	303.0060783374	3
11	3228	303.218528510193	1
11	3235	303.727348556682	4
11	3239	303.928718724789	1
11	3245	304.136521569223	1
11	3251	304.539459390538	3
11	3271	308.2	2
11	3276	308.508166123589	2
11	3281	308.812822310188	2
11	3285	309.015735734763	1
11	3292	309.52563820436	4
11	3311	312.1	1
11	3317	312.6	4
11	3323	313.008209557773	3
11	3329	313.416854522016	3
11	3336	313.920068408827	4
11	3347	314.620666024867	6
11	3370	318.5	5
11	3376	319	4
11	3381	319.304389763541	2
11	3388	319.812745752638	4
11	3400	320.61373038241	7
11	3407	321.115543802425	4
11	3411	321.321827157491	1
11	3433	324.4	4
11	3437	324.7	2
11	3442	325.008794981772	2
11	3446	325.21835877116	1
11	3452	325.624892948697	3
11	3465	326.529089229771	8
11	3487	330.4	4
11	3494	331	5
11	3500	331.40123179807	3
11	3507	331.908332133045	4
11	3514	332.211126904239	2
11	3522	332.81618199701	5
11	3548	336.8	8
11	3556	337.5	6
11	3561	337.801519487281	2
11	3568	338.108735227093	2
11	3573	338.412499986655	2
11	3577	338.614723477483	1
11	3583	339.015131708239	3
11	3589	339.415900663693	3
11	3593	339.625282996661	1
11	3601	340.031274568905	3
11	3607	340.437203522548	3
11	3612	340.742440362905	2
11	3632	344.2	2
11	3639	344.706191608747	4
11	3647	345.3155370484	5
11	3653	345.719914390059	3
11	3660	346.021031774481	2
11	3666	346.340531758719	2
11	3671	346.642779406241	2
11	3693	350.4	4
11	3699	350.9	4
11	3703	351.109399892215	1
11	3708	351.416153113019	2
11	3713	351.725759049652	2
11	3720	352.033799397342	2
11	3727	352.540806011384	4
11	3747	356.2	2
11	3752	356.6	3
11	3758	357.002872395247	3
11	3762	357.211438811872	1
11	3782	360.2	2
11	3788	360.7	4
11	3794	361.108695762907	3
11	3798	361.31466008898	1
11	3806	361.92404646867	5
11	3815	362.425139383147	4
11	3842	366.9	9
11	3853	367.9	9
11	3860	368.201164828371	2
11	3864	368.402235236044	1
11	3869	368.706754248144	2
11	3876	369.208950835931	4
11	3902	372.8	8
11	3908	373.3	4
11	3915	373.806833420291	4
11	3923	374.209139681861	3
11	3928	374.509742526351	2
11	3949	378.3	3
11	3954	378.7	3
11	3959	379.001469856286	2
11	3966	379.502993399796	4
11	3976	380.110526593177	5
11	3983	380.616538337444	4
11	3990	381.121044021023	4
11	3998	381.72605061118	5
11	4007	382.230121626921	4
11	4012	382.535675658641	2
11	4036	386.6	6
11	4046	387.5	8
11	4056	388.108915261693	5
11	4061	388.411544633495	2
11	4081	392.2	2
11	4085	392.5	2
11	4091	392.90964945215	3
11	4095	393.11000931357	1
11	4100	393.31917848959	1
11	4105	393.626166592753	2
11	4127	396.4	4
11	4130	396.6	1
11	4136	397.00092664509	3
11	4141	397.304404017214	2
11	4146	397.609289830668	2
11	4151	397.91554746406	2
11	4158	398.22158444142	2
11	4186	403	10
11	4192	403.5	4
11	4204	404.308728197459	7
11	4210	404.710899874798	3
11	4234	408.6	6
11	4241	409.2	5
11	4246	409.503455277986	2
11	4251	409.807969304516	2
11	4270	412.1	1
11	4273	412.3	1
11	4281	412.904339699223	5
11	4287	413.312598620992	3
11	4308	416.3	3
11	4316	417	6
11	4323	417.506688732712	4
11	4328	417.813139734053	2
11	4341	418.717093143767	8
11	4362	422.3	3
11	4366	422.6	2
11	4370	422.801097276445	1
11	4382	423.432417455392	5
11	4395	424.243154377125	7
11	4401	424.649406922548	3
11	4409	425.256808671909	5
11	4415	425.664143117758	3
11	4436	428.3	3
11	4439	428.5	1
11	4444	428.809481896643	2
11	4454	429.610084014489	7
11	4459	429.916508794529	2
11	4465	430.124617891113	1
11	4489	434.6	6
11	4499	435.5	8
11	4508	436.002096295165	4
11	4515	436.505831171662	4
11	4522	437.009850540926	4
11	4529	437.51669090764	4
11	4538	438.022643157433	4
11	4542	438.232612912343	1
11	4546	438.438715592536	1
11	4553	438.945978815873	4
11	4560	439.447058192401	4
11	4586	442.8	8
11	4597	443.8	9
11	4609	444.60896947971	7
11	4616	445.114131054716	4
11	4624	445.72221073068	5
11	4635	446.430783173472	6
11	4644	447.132690329712	6
11	4670	450.8	8
11	4676	451.3	4
11	4687	452.003697071988	6
11	4695	452.61119753035	5
11	4704	453.313074787303	6
11	4710	453.714698794902	3
11	4717	454.017495709884	2
11	4721	454.220027537639	1
11	4726	454.520277283037	2
11	4736	455.323054916305	7
11	4756	458.2	2
11	4766	459.1	8
11	4771	459.408419721804	2
11	4777	459.816032751703	3
11	4783	460.018380685171	1
11	4787	460.223711568472	1
11	4792	460.530769235599	2
11	4798	460.934650964727	3
11	4808	461.742175360174	7
11	4829	464.3	3
11	4835	464.8	4
11	4842	465.303771689073	4
11	4848	465.709570516845	3
11	4856	466.1118174877	3
11	4863	466.616253048221	4
11	4868	466.920377455339	2
11	4889	470.3	3
11	4895	470.8	4
11	4902	471.300067227431	4
11	4910	471.908460896179	5
11	4916	472.113396903712	1
11	4922	472.522188823195	3
11	4929	473.025954753148	4
11	4950	476.3	3
11	4956	476.8	4
11	4964	477.314602188183	4
11	4969	477.623668785296	2
11	4977	478.028896638018	3
11	4985	478.540004606549	4
11	4996	479.442720419675	8
11	5017	482.3	3
11	5023	482.8	4
11	5029	483.208861403744	3
11	5038	483.91786984272	6
11	5047	484.424661166308	4
11	5058	485.334363734646	8
11	5069	486.038558604997	6
11	5089	490.2	2
11	5096	490.8	5
11	5106	491.602722837955	7
11	5116	492.209271225987	5
11	5120	492.414828790402	1
11	5125	492.72151222691	2
11	5129	492.921554552245	1
11	5137	493.528575523822	5
11	5146	494.034125022371	4
11	5151	494.343281841575	2
11	5156	494.647311375368	2
11	5161	494.956204633003	2
11	5168	495.457553961135	4
11	5187	498.1	1
11	5191	498.4	2
11	5197	498.802778151584	3
11	5201	499.012717291746	1
11	5222	502.3	3
11	5227	502.7	3
11	5231	502.904573033456	1
11	5235	503.104881644802	1
11	5241	503.514261521798	3
11	5262	506.3	3
11	5268	506.8	4
11	5275	507.303117796203	4
11	5282	507.811448213245	4
11	5293	508.519413954425	6
11	5301	509.120724579575	5
11	5309	509.729826208184	5
11	5335	512.8	8
11	5340	513.2	3
11	5346	513.607693629632	3
11	5354	514.009098514448	3
11	5361	514.517716938612	4
11	5369	515.123466636311	5
11	5373	515.326026437443	1
11	5379	515.733989199555	3
11	5389	516.343512701994	5
11	5396	516.850479049362	4
11	5404	517.45482757208	5
11	5424	520.2	2
11	5428	520.5	2
11	5438	521.303770657062	7
11	5445	521.808144332341	4
11	5454	522.314392675106	4
11	5462	522.922511034007	5
11	5484	526.4	4
11	5490	526.9	4
11	5494	527.100386226258	1
11	5503	527.62170512219	4
11	5525	530.4	4
11	5531	530.9	4
11	5547	532.10346931027	11
11	5554	532.610009642669	4
11	5576	536.4	4
11	5582	536.9	4
11	5587	537.209352971708	2
11	5592	537.42035732331	1
11	5599	537.639675583484	1
11	5609	538.240799999228	5
11	5616	538.745692465743	4
11	5640	542.6	6
11	5645	543	3
11	5653	543.609469954436	5
11	5661	544.012707592222	3
11	5666	544.312993646269	2
11	5687	548.3	3
11	5693	548.8	4
11	5699	549.204546190674	3
11	5703	549.412693121362	1
11	5709	549.821644456201	3
11	5715	550.024047311677	1
11	5721	550.425358153141	3
11	5725	550.628078373248	1
11	5732	551.137775250104	4
11	5753	554.3	3
11	5761	554.902802679212	5
11	5765	555.109397422619	1
11	5770	555.414114624812	2
11	5776	555.819923703571	3
11	5784	556.224673355541	3
11	5791	556.732424614541	4
11	5811	560.2	2
11	5818	560.8	5
11	5824	561.208050906728	3
11	5832	561.815604995887	5
11	5840	562.217603956358	3
11	5846	562.62121555851	3
11	5854	563.226259505307	5
11	5875	566.3	3
11	5880	566.7	3
11	5885	567.00773052304	2
11	5894	567.711980111272	6
11	5901	568.013341003161	2
11	5908	568.523321370881	4
11	5914	568.929232439902	3
11	5919	569.235865238786	2
11	5925	569.6403022474	3
11	5929	569.842343016706	1
11	5949	572.2	2
11	5954	572.6	3
11	5958	572.808425691183	1
11	5963	573.114809695332	2
11	5971	573.724429474595	5
11	5981	574.332081365008	5
11	6001	578.2	2
11	6007	578.7	4
11	6013	579.10230924132	3
11	6022	579.806576027888	6
11	6044	582.4	4
11	6049	582.8	3
11	6057	583.40846063914	5
11	6063	583.811162687137	3
11	6069	584.014583243878	1
11	6076	584.51818888459	4
11	6102	588.8	8
11	6107	589.2	3
11	6115	589.805766166059	5
11	6124	590.310344913894	4
11	6129	590.614873068715	2
11	6136	591.117378127908	4
11	6158	594.4	4
11	6165	595	5
11	6170	595.308816428685	2
11	6181	596.017672910587	6
11	6187	596.424419142076	3
11	6194	596.933281556163	4
11	6198	597.13923863274	1
11	6224	600.8	8
11	6229	601.2	3
11	6237	601.805804356506	5
11	6243	602.0073694927	1
11	6249	602.412904377853	3
11	6256	602.915118783468	4
11	6260	603.11713292669	1
11	6280	606.2	2
11	6287	606.8	5
11	6292	607.105681169822	2
11	6298	607.50697949503	3
11	6304	607.907124957122	3
11	6313	608.411100017021	4
11	6320	608.911986114955	4
11	6328	609.519609000123	5
11	6350	612.5	5
11	6353	612.7	1
11	6360	613.209573962206	4
11	6367	613.717567012728	4
11	6373	614.120818360237	3
