version 2
run Join-98-20130520-16:48:00-32715
attr configname Join
attr datetime 20130520-16:48:00
attr experiment "\"Join\""
attr inifile omnetpp.ini
attr iterationvars $0=16384
attr iterationvars2 "$0=16384, $repetition=8"
attr measurement $0=16384
attr network Network
attr processid 32715
attr repetition 8
attr replication #8
attr resultdir results
attr runnumber 98
attr seedset 98

vector 98  Network.dyn_peer[0]  lookupHopsSig:vector  ETV
98	43501	22.405723710267	57
98	43550	26.711108278946	42
98	43571	28.419770311419	16
98	43650	35.527970384994	70
98	43691	39.031045871213	34
98	43710	40.53485460382	14
98	43756	44.536294726597	39
98	43815	49.839342979975	52
98	43854	53.143519516559	32
98	43897	56.851803588564	36
98	44016	69.4	94
98	44078	74.9	54
98	44120	78.502108947634	35
98	44186	84.303471535506	57
98	44211	86.411070340533	20
98	44223	87.413489833361	9
98	44284	92.719834097522	52
98	44315	97.6	16
98	44355	101.1	34
98	44418	106.602638860817	54
98	44469	111.111190286038	44
98	44515	115.118807348528	39
98	44538	117.027206174564	18
98	44592	121.831176142092	47
98	44619	125.2	12
98	44686	131.2	59
98	44729	134.907019018938	36
98	44801	141.307422615403	63
98	44958	155.409638227556	140
98	45014	160.217962629526	47
98	45071	165.3212673201	50
98	45126	170.026786374776	46
98	45179	174.728469699255	46
98	45240	180.030939560152	52
98	45345	189.534157402493	94
98	45406	194.840285133575	52
98	45481	201.546909094101	66
98	45536	206.24937841019	46
98	45596	211.65613384893	53
98	45643	215.76151906319	40
98	45700	220.670797600211	48
98	45902	228.6	46
98	45956	230.3	16
98	46011	232.001640660627	16
98	46218	238.509032861978	64
98	46380	243.610701976596	50
98	46498	248.111683612361	44
98	46612	253.419035825147	52
98	46679	257.822432810989	43
98	46744	263.525592289619	56
98	46756	264.334754967322	7
98	46793	269.9	19
98	46826	272.7	27
98	46887	278.009230025131	52
98	46925	281.418477252667	33
98	46984	286.5265274486	50
98	47037	291.233045724272	46
98	47200	305.93801483697	146
98	47238	309.147746952818	31
98	47299	314.456191159721	52
98	47356	319.558019652407	50
98	47380	321.564626304542	19
98	47424	325.364664551112	37
98	47482	330.37097136262	49
98	47543	335.880153282786	54
98	47824	349.7	117
98	48060	360.7	109
98	48184	366.405620176421	56
98	48275	373.813774391989	73
98	48309	376.614777009339	27
98	48351	380.22049723814	35
98	48391	383.827281525435	35
98	48441	388.030076630981	41
98	48489	392.232606141326	41
98	48534	396.13961056138	38
98	48576	399.940438568814	37
98	48659	408	60
98	48682	410	19
98	48707	412.101295507461	20
98	48756	416.409229134043	42
98	48781	418.51660044032	20
98	48840	423.821037306963	52
98	48869	426.1282351277	22
98	48991	439.9	99
98	49065	446.4	64
98	49074	447.107889477794	6
98	49131	452.011909787738	48
98	49182	456.515811856439	44
98	49296	466.721020568526	101
98	49346	471.127118319736	43
98	49442	479.737090719127	85
98	49630	497.8	158
98	49759	509.4	115
98	49791	512.002174357676	25
98	49848	517.102732396593	50
98	49979	528.812543051693	116
98	50056	535.714771184104	68
98	50112	541.6	36
98	50146	544.5	28
98	50198	549.107824464086	45
98	50273	555.813830458144	66
98	50330	560.715826612717	48
98	50373	564.421214143015	36
98	50452	571.523653331718	70
98	50469	572.82834427752	12
98	50579	584.6	86
98	50701	595.7	110
98	50737	598.702095437769	29
98	50835	607.505015734843	87
98	50885	611.911644212968	43
98	50923	615.114038313626	31
98	51002	622.023243518512	68
98	51075	628.532007221626	64
98	51167	638.8	68
98	51241	645.5	66
98	51322	652.606948913196	70
98	51372	657.008217159949	43
98	51424	661.610907148024	45
98	51498	668.01774897565	63
98	51539	671.726678385528	36
98	51583	675.52800100659	37
98	51733	690.2	122
98	51800	696.2	59
98	51853	700.903179381745	46
98	51901	705.108892906316	41
98	51937	708.116272662992	29
98	51984	712.222196963773	40
98	52043	717.52872043969	52
98	52129	726.5	65
98	52201	733	64
98	52319	743.607437011683	105
98	52388	749.711261557605	60
98	52463	756.216950106922	64
98	52529	762.020103232684	57
98	52677	775.429240484962	133
98	52789	786.9	89
98	52825	790	30
98	52859	793.004499161941	29
98	52920	798.307348716467	52
98	52981	803.810545972421	54
98	53092	813.717476651662	98
98	53183	821.823669171503	80
98	53304	832.531378481648	106
98	53412	839.4	34
98	53498	843.4	39
98	53530	844.802581105558	13
98	53694	852.403740911902	75
98	53742	854.609109478387	21
98	53804	857.509742422966	28
98	53898	862.718638115979	51
98	53959	868.022298251029	52
98	54036	877.7	57
98	54112	884.4	66
98	54180	890.403197881551	59
98	54252	896.810703010165	63
98	54324	903.217004029787	63
98	54353	905.726578551755	24
98	54414	911.027462998987	52
98	54481	918.8	48
98	54545	924.5	56
98	54647	933.707634616238	91
98	54699	938.11029843308	43
98	54793	946.512970799489	83
98	54935	961.4	114
98	54991	966.3	48
98	55007	967.704016363655	13
98	55083	974.312559193644	65
98	55158	981.021730820158	66
98	55223	986.725606571266	56
98	55330	996.231970421134	94
98	55448	1009.5	95
98	55516	1015.6	60
98	55564	1019.809014013309	41
98	55622	1024.813529697928	49
98	55645	1026.720320678899	18
98	55678	1029.62793038626	28
98	55746	1035.633121900218	59
98	55831	1043.133791995548	74
98	55998	1059.7	137
98	56058	1065	52
98	56125	1070.907496444596	58
98	56208	1078.214355395095	72
98	56268	1083.618866652712	53
98	56329	1088.928479868332	52
98	56376	1093.028864297641	40
98	56440	1098.632351132554	55
98	56490	1103.039780736127	43
98	56530	1106.445589002125	33
98	56580	1110.849700336121	43
98	56664	1118.250124172433	73
98	56721	1123.357575408625	50
98	56852	1128.4	24
98	57048	1134.6	61
98	57207	1141.80443781774	71
98	57249	1143.710147419252	18
98	57347	1148.118470721853	43
98	57414	1152.22527879504	40
98	57431	1153.727671323071	14
98	57453	1155.534371387664	17
98	57507	1160.138466796375	45
98	57523	1161.53930272769	13
98	57598	1168.047869267589	64
98	57729	1182.5	105
98	57744	1183.9	13
98	57793	1188.006167758295	40
98	57830	1191.315411083059	32
98	57887	1196.217683136825	48
98	57898	1197.124836717183	8
98	57943	1201.025330678941	38
98	58081	1215.3	113
98	58123	1219	36
98	58168	1222.907297460259	38
98	58199	1225.616296828299	26
98	58248	1229.916937237785	42
98	58300	1234.318066197578	43
98	58401	1243.426499351707	90
98	58451	1249.3	33
98	58486	1252.3	29
98	58530	1256.106364778452	37
98	58562	1258.916171695892	27
98	58612	1263.320577771071	43
98	58702	1271.323643305675	79
98	58875	1286.832345814437	154
98	58962	1294.533636743458	76
98	59025	1300.041026678184	54
98	59167	1312.843845805354	127
98	59189	1314.644177123564	17
98	59278	1322.547506103443	78
98	59310	1325.356938664663	27
98	59400	1333.364474450306	79
98	59428	1335.76697844136	23
98	59443	1336.868062059236	10
98	59497	1341.67797567184	47
98	59572	1349.3	53
98	59611	1352.7	33
98	59728	1363.201860709625	104
98	59762	1366.011341409095	27
98	59810	1370.219320216058	41
98	59848	1373.624967503932	33
98	59881	1376.332438135433	26
98	59937	1381.338798826492	49
98	59992	1386.045469784016	46
98	60020	1391.2	12
98	60082	1396.7	54
98	60153	1403.006649219016	62
98	60159	1403.407441171602	3
98	60227	1409.417123911088	59
98	60295	1415.41914176197	59
98	60358	1420.921165876113	54
98	60425	1426.828219694319	58
98	60486	1432.133057897408	52
98	60553	1438.042559306971	58
98	60660	1447.743904486391	96
98	60692	1450.352026622539	25
98	60846	1464.157745297354	137
98	60953	1476.1	81
98	61114	1490.7	145
98	61219	1500.002354882373	92
98	61311	1508.204657840709	81
98	61445	1520.211312217219	119
98	61585	1528.9	49
98	61673	1535.7	67
98	61754	1542.802869880243	70
98	61808	1547.605062652185	47
98	61870	1553.00781616581	53
98	61911	1556.515752912993	34
98	61990	1563.621868146546	70
98	62029	1566.92732027488	32
98	62096	1572.833759404469	58
98	62357	1586.5	105
98	62580	1596.8	102
98	62660	1601.100565168159	42
98	62757	1609.806533116958	86
98	62791	1612.608530970272	27
98	62816	1614.712170307818	20
98	62866	1619.119550490011	43
98	62884	1620.525598110912	13
98	62994	1627.6	36
98	63120	1633.5	58
98	63192	1636.80205350483	32
98	63309	1643.208977675698	63
98	63326	1644.518800771959	12
98	63397	1650.827010763374	62
98	63497	1659.831643239157	89
98	63518	1661.539547855404	16
98	63587	1667.646475605866	60
98	63631	1671.448014911647	37
98	63741	1681.255072785311	97
98	63771	1683.855699239778	25
98	63853	1691.065325584623	71
98	63882	1693.565903657641	24
98	63923	1697.075785947852	34
98	64005	1704.284808593681	71
98	64088	1711.793283647273	74
98	64163	1719.3	53
98	64244	1726.5	71
98	64443	1744.406566529206	178
98	64478	1747.510234232025	30
98	64511	1750.214967980153	26
98	64556	1754.124446432253	38
98	64573	1755.627843311543	14
98	64642	1761.72841977453	60
98	64661	1763.233930801494	14
98	64725	1770.3	43
98	64817	1778.6	82
98	64930	1788.707116840651	100
98	65040	1798.510571562004	97
98	65052	1799.510645375448	9
98	65065	1800.417082077484	8
98	65086	1802.117982279104	16
98	65148	1807.719010338336	55
98	65277	1819.221681388574	114
98	65382	1830	80
98	65500	1840.7	106
98	65523	1842.609496536755	18
98	65614	1850.713217835581	80
98	65663	1855.014500308752	42
98	65766	1864.117783354423	90
98	65815	1868.423227749785	42
98	65905	1878.9	69
98	65952	1883.1	41
98	66000	1887.305566519179	41
98	66043	1891.008959140138	36
98	66112	1897.115409019184	60
98	66159	1901.22216847489	40
98	66197	1904.427282194843	31
98	66358	1921.4	134
98	66404	1925.5	40
98	66464	1930.702096727257	51
98	66496	1933.502528566065	27
98	66633	1945.810676109165	122
98	66718	1953.31702627565	74
98	66742	1955.327024036319	19
98	66786	1959.134193574475	37
98	66875	1967.037955458835	78
98	66982	1978.1	81
98	67059	1985.1	69
98	67123	1990.707360496884	55
98	67203	1997.912536200405	71
98	67237	2000.715916363144	27
98	67295	2005.923238022575	51
98	67312	2007.225395650256	12
98	67363	2011.729168706836	44
98	67382	2013.237183727782	14
98	67440	2018.239291231168	49
98	67621	2036.9	149
98	67720	2045.9	89
98	67737	2047.208066096797	12
98	67795	2052.208123468707	49
98	67864	2058.311857204501	60
98	67920	2063.314559317844	49
98	67957	2066.419692403402	30
98	68378	2081.5	115
98	68542	2086.6	50
98	68612	2088.708080211558	20
98	68839	2098.20887572972	94
98	68929	2103.411603737023	51
98	68953	2105.413389867857	19
98	69033	2112.414606525603	69
98	69083	2116.824470672023	43
98	69102	2118.327068268873	14
98	69236	2130.333589881197	119
98	69304	2138.7	47
98	69372	2144.8	60
98	69451	2151.904124969493	70
98	69487	2154.910114484499	29
98	69573	2162.513439278232	75
98	69655	2169.920038965539	73
98	69695	2173.324706419179	33
98	69768	2179.831841978303	64
98	69793	2181.939623275646	20
98	69842	2186.04352566878	40
98	69894	2190.644394684242	45
98	69918	2192.650105666428	19
98	69933	2193.958423379159	12
98	69970	2197.9	19
98	70035	2203.7	57
98	70093	2208.706962242652	49
98	70204	2218.616491636714	98
98	70228	2220.624026392536	19
98	70263	2223.731834329602	30
98	70332	2229.832147889852	60
98	70410	2237.6	56
98	70447	2240.8	31
98	70487	2244.204938270465	33
98	70519	2247.006742353745	27
98	70544	2249.114045532893	20
98	70626	2256.322665449574	71
98	70672	2260.331951336557	39
98	70719	2264.441113847739	40
98	70796	2271.350474551653	68
98	70837	2274.852887363219	34
98	70924	2282.557322104393	76
98	70957	2285.461684949785	28
98	71142	2303.5	155
98	71203	2308.9	53
98	71316	2319.005646858259	100
98	71382	2324.815558840266	57
98	71446	2330.41874499176	55
98	71453	2330.927761044996	4
98	71527	2337.533363662774	65
98	71537	2338.138396938249	5
98	71567	2340.739199724045	25
98	71585	2342.142696975061	13
98	71648	2347.848069332983	56
98	71659	2348.557226258798	6
98	71673	2349.757719127037	11
98	71741	2355.7630900135	59
98	71824	2363.068805969957	72
98	71893	2370.8	48
98	71917	2372.9	20
98	71961	2376.708098959892	37
98	71990	2379.209414476009	24
98	72061	2385.511102396682	62
98	72160	2394.215482694838	86
98	72214	2399.025055933472	47
98	72331	2405.8	38
98	72400	2409	31
98	72500	2413.601526002672	45
98	72628	2419.502296075618	58
98	72670	2421.407095076709	18
98	72695	2422.609146021974	11
98	72806	2432.516127203418	98
98	72820	2433.725986612959	11
98	72879	2438.829451112638	50
98	72967	2446.633863563745	77
98	73063	2457.3	73
98	73083	2459	16
98	73201	2469.60456833146	105
98	73214	2470.509248617132	8
98	73306	2478.712597407054	81
98	73391	2486.220967086074	74
98	73445	2491.021000743378	47
98	73560	2497.7	37
98	73769	2507.3	95
98	73933	2514.802154885046	74
98	73961	2516.809893134985	19
98	74045	2524.219266804159	73
98	74086	2527.92191498216	36
98	74130	2531.730298655324	37
98	74197	2537.633843278151	58
98	74303	2548	80
98	74394	2556.2	81
98	74475	2563.500963227879	72
98	74524	2567.808410845158	42
98	74540	2569.011030988729	11
98	74607	2574.915075208003	58
98	74691	2582.32440800969	73
98	74750	2587.630854760885	52
98	74815	2593.336480717513	56
98	74844	2595.842643541568	24
98	74982	2600.6	26
98	75142	2605.7	50
98	75242	2608.704668037812	29
98	75388	2615.507751439728	67
98	75460	2618.712269709137	31
98	75607	2626.116398550615	73
98	75660	2630.824461863691	46
98	75710	2635.224586965968	43
98	75783	2641.726700411643	64
98	75823	2645.126882158898	33
98	75859	2648.133235232171	29
98	75950	2656.240496354158	80
98	76044	2667	70
98	76125	2674.2	71
98	76176	2678.709770377986	44
98	76248	2685.115649346595	63
98	76290	2688.716336466464	35
98	76336	2692.724202219491	39
98	76363	2695.031579335994	22
98	76411	2701.1	31
98	76475	2706.8	56
98	76584	2716.509352908038	96
98	76615	2719.213096735443	26
98	76637	2721.014923986292	17
98	76667	2723.615190513187	25
98	76683	2724.816428362877	11
98	76751	2730.820306362848	59
98	76813	2736.225728283229	53
98	76886	2741.8	18
98	76999	2747.2	53
98	77070	2753.509517862137	62
98	77123	2758.013879532573	44
98	77181	2763.220908521326	51
98	77254	2769.727243697164	64
98	77349	2778.036682174343	82
98	77447	2789.7	77
98	77485	2793	32
98	77505	2794.602392380284	15
98	77525	2796.21176805084	15
98	77630	2805.715920800104	94
98	77708	2812.51764052707	67
98	77718	2813.321992975491	7
98	77744	2817.1	11
98	77765	2818.9	17
98	77788	2820.803461178611	18
98	77845	2825.911437570089	50
98	77906	2831.213563145512	52
98	77975	2837.31866562991	60
98	78000	2839.421645482453	20
98	78077	2846.124499961568	66
98	78100	2848.033524021103	18
98	78243	2860.934504031049	128
98	78330	2868.63702194962	76
98	78356	2870.846059238424	21
98	78377	2872.554753921236	16
98	78403	2874.758529503132	21
98	78423	2876.359151679233	15
98	78470	2880.465574217631	40
98	78562	2890.8	68
98	78603	2894.4	35
98	78646	2898.104766247912	36
98	78718	2904.511993747364	63
98	78755	2907.81980731559	32
98	78805	2912.02797846694	41
98	78846	2915.729657583613	36
98	78914	2921.731655212889	59
98	79004	2929.741217592697	79
98	79127	2934.1	21
98	79271	2938.6	44
98	79314	2939.909390635192	12
98	79426	2943.312865526163	33
98	79567	2947.618322792625	42
98	79613	2948.923460546223	12
98	79754	2955.529339123581	65
98	79784	2956.829954648263	12
98	79808	2957.932414689318	10
98	79826	2958.6335861661	6
98	79885	2961.334389212158	26
98	79952	2967.236623252025	58
98	79997	2971.145942901917	38
98	80050	2975.855430323555	46
98	80088	2979.062123138349	31
98	80118	2981.665270169618	25
98	80151	2985.6	16
98	80240	2993.6	79
98	80306	2999.407125742961	57
98	80371	3005.115256441777	56
98	80454	3012.416484034973	72
98	80485	3015.118719528532	26
98	80568	3022.421364449875	72
98	80644	3031.7	57
98	80698	3036.4	46
98	80724	3038.600881474781	21
98	80773	3042.910746405629	42
98	80817	3046.7188992832	37
98	80874	3051.825145799685	50
98	80895	3053.530819713005	16
98	80986	3061.640382632799	80
98	81034	3065.842603085636	41
98	81079	3069.743735035344	38
98	81124	3073.64398525578	38
98	81176	3078.046591711014	43
98	81223	3082.155436790012	40
98	81297	3091.3	53
98	81329	3094	26
98	81383	3098.807203075627	47
98	81469	3106.407490222577	75
98	81484	3107.71208740662	12
98	81531	3111.819923057781	40
98	81562	3114.320037510182	24
98	81653	3122.42622502971	80
98	81681	3124.832244012675	23
98	81691	3125.633728168893	7
98	81783	3133.843547705341	81
98	81829	3137.850918993341	39
98	81996	3153.8	138
98	82018	3155.7	18
98	82062	3159.505416769115	37
98	82127	3165.213903281464	56
98	82167	3168.621011028474	33
98	82222	3173.525415972366	48
98	82254	3176.13506022226	25
98	82341	3186.6	66
98	82358	3188	13
98	82373	3189.309928588389	12
98	82458	3196.818764951619	74
98	82465	3197.323276617278	4
98	82477	3198.126693015627	7
98	82491	3199.331126860438	11
98	82554	3206.4	44
98	82630	3213.3	68
98	82707	3220.009619207351	66
98	82814	3229.712218589604	96
98	82875	3235.019230064887	52
98	82927	3239.622877467551	45
98	83007	3246.631036798152	69
98	83080	3253.136549457871	64
98	83152	3259.540381191636	63
98	83217	3265.249823304475	56
98	83350	3278.7	107
98	83457	3288.3	95
98	83473	3289.700419584582	13
98	83487	3290.704150256134	9
98	83556	3296.813778567692	60
98	83613	3301.914975013372	50
98	83629	3303.118631674037	11
98	83672	3308.6	26
98	83714	3312.3	36
98	83802	3320.105098976781	77
98	83869	3326.007871493833	58
98	83889	3327.809127866233	17
98	83966	3334.516883726546	66
98	84007	3338.025035290771	34
98	84058	3342.530585010418	44
98	84157	3351.431182715914	88
98	84177	3353.035744444865	15
98	84238	3358.339326285437	52
98	84266	3360.742006311063	23
98	84294	3363.150715898771	23
98	84326	3365.951492875849	27
98	84369	3369.657715130035	36
98	84633	3382.8	108
98	84746	3388	51
98	84796	3390.207324934147	21
98	84866	3393.513834541425	32
98	84948	3397.515141179551	39
98	84973	3399.619799310214	20
98	85017	3403.422442244196	37
98	85086	3409.527837116848	60
98	85154	3416.8	48
98	85183	3419.4	25
98	85218	3422.306145295882	28
98	85311	3430.606282276021	82
98	85353	3434.211579176598	35
98	85402	3438.521254188642	42
98	85444	3442.128377041583	35
98	85484	3445.732311856759	35
98	85497	3446.632958643609	8
98	85644	3455.2	52
98	85821	3465.1	98
98	85904	3472.402605245749	72
98	85914	3473.202646855874	7
98	86029	3483.507186194038	102
98	86107	3490.308025639088	67
98	86140	3493.212117354709	28
98	86489	3510.8	148
98	86582	3515.1	42
98	86756	3523.202216641393	80
98	86809	3525.610424214992	23
98	86931	3531.212640310064	55
98	87017	3535.217932186868	39
98	87119	3539.922712789507	46
98	87198	3543.927896610282	39
98	87307	3553.636376437484	96
98	87411	3561.5	55
98	87454	3565.3	37
98	87612	3579.507408090664	141
98	87684	3585.910679223676	63
98	87735	3590.214266779831	42
98	87786	3594.720680825892	44
98	87834	3598.927607871219	41
98	87879	3602.82860408289	38
98	87930	3607.330110132241	44
98	88022	3615.536197232001	81
98	88058	3619.8	18
98	88197	3632.2	123
98	88260	3637.905804958951	56
98	88403	3650.615415274302	126
98	88477	3657.223270092337	65
98	88552	3663.929804400152	66
98	88632	3670.936787745172	69
98	88710	3677.93833864156	69
98	88786	3684.540195017546	65
98	88855	3690.645573485938	60
98	88986	3704.5	105
98	89072	3712.2	76
98	89230	3726.401214342743	141
98	89307	3733.308959853802	68
98	89320	3734.211983795749	8
98	89360	3737.814745526824	35
98	89403	3741.517123144758	36
98	89477	3749.5	55
98	89576	3758.3	87
98	89592	3759.701107060262	13
98	89669	3766.409010289714	66
98	89805	3778.61430156937	121
98	89861	3783.623944054154	49
98	89958	3792.131589739228	84
98	90037	3799.232897072407	70
98	90101	3804.841983976718	55
98	90165	3810.44817254814	55
98	90240	3817.148400846765	66
98	90445	3827.8	78
98	90568	3835.4	75
98	90652	3842.807061122492	73
98	90673	3844.509521207252	16
98	90705	3847.311337158399	27
98	90731	3849.511619458692	21
98	90757	3851.716672080533	21
98	90781	3853.722687241278	19
98	90905	3864.730932055764	109
98	90968	3870.237052893541	54
98	90995	3872.543212631882	22
98	91015	3874.149875125104	15
98	91053	3877.551106774684	33
98	91065	3878.354196746861	7
98	91083	3879.958808394364	15
98	91348	3891	90
98	91503	3899	79
98	91518	3900.101025386352	10
98	91563	3904.00312669949	38
98	91637	3910.604383571954	65
98	91709	3917.004735834603	63
98	91782	3923.512871424068	64
98	91859	3930.217189277306	66
98	92010	3939.5	55
98	92189	3947.9	83
98	92255	3951.503705763362	35
98	92313	3956.506047011035	49
98	92338	3958.607012359137	20
98	92417	3965.715772021757	70
98	92449	3968.325155215784	25
98	92521	3977.3	53
98	92576	3982.1	47
98	92606	3984.700751345849	25
98	92655	3989.009453467319	42
98	92680	3991.110532108475	20
98	92810	4002.711705814231	115
98	92868	4009.8	38
98	92896	4012.1	22
98	92944	4016.308911990567	41
98	92971	4018.610350758963	22
98	92981	4019.412198444813	7
98	93025	4023.212989680621	37
98	93073	4027.416193693795	41
98	93105	4030.022040827439	25
98	93166	4035.52928898692	54
98	93303	4047.832519904126	122
98	93337	4050.642228392437	27
98	93362	4052.746982318016	20
98	93475	4064.9	89
98	93478	4065.1	1
98	93488	4065.903714363079	7
98	93607	4076.407750299673	104
98	93688	4083.711977877737	72
98	93703	4084.819477587506	10
98	93817	4095.019988260169	101
98	93886	4101.12565856107	60
98	93957	4107.433745010019	62
98	94008	4111.93757748796	44
98	94080	4118.138761868508	61
98	94090	4118.942105562801	7
98	94130	4122.343052205394	33
98	94163	4125.245680514571	28
98	94276	4131.6	36
98	94353	4135.2	35
98	94473	4140.607724164002	53
98	94573	4145.215674373129	45
98	94636	4148.017829558044	27
98	94709	4151.417912818219	33
98	94888	4159.827546378157	83
98	94939	4165.4	34
98	94994	4170.2	47
98	95042	4174.406384086075	41
98	95137	4182.913206664937	84
98	95203	4188.720993318009	57
98	95251	4192.92347186174	41
98	95284	4195.832751514417	28
98	95399	4207.2	92
98	95478	4214.2	69
98	95524	4218.204688256946	39
98	95592	4224.208826567793	59
98	95633	4227.910365298075	36
98	95706	4234.210749897278	62
98	95715	4234.915411345244	6
98	95758	4238.618174812498	36
98	95802	4242.424353877503	37
98	95913	4252.332578726165	98
98	95958	4256.239637934149	38
98	96054	4264.846435068715	85
98	96199	4279.7	117
98	96245	4283.8	40
98	96300	4288.509215769169	46
98	96330	4291.117616646785	25
98	96388	4296.124291457132	49
98	96461	4302.62489221152	64
98	96536	4309.327254650749	66
98	96577	4312.836123969101	34
98	96642	4318.54080123502	56
98	96858	4340	180
98	96964	4349.7	96
98	97050	4357.308910412623	75
98	97132	4364.514100887947	71
98	97218	4372.115339787652	75
98	97277	4377.42182337282	52
98	97336	4382.530728790955	50
98	97378	4386.135037530497	35
98	97464	4393.939622494829	77
98	97492	4396.147551265476	21
98	97529	4399.450583989744	32
98	97541	4400.256568116525	7
98	97578	4403.557419413607	32
98	97680	4409.1	31
98	97782	4417.5	83
98	97875	4425.808542042188	82
98	97947	4432.009495570154	61
98	97996	4436.319264533046	42
98	98042	4440.32434500777	39
98	98059	4441.830448298159	14
98	98076	4443.131803245603	12
98	98122	4447.13323678025	39
98	98158	4450.138580155691	29
98	98367	4462	80
98	98496	4468	59
98	98618	4473.500059261997	54
98	98626	4473.800062891999	2
98	98740	4478.901825699258	50
98	98818	4482.502189329624	35
98	98938	4488.011456560577	54
98	99167	4510.9	189
98	99235	4517	60
98	99285	4521.406204645854	43
98	99317	4524.008516308049	25
98	99368	4528.511501769216	44
98	99435	4534.411644479909	58
98	99487	4539.012346447302	45
98	99503	4540.222074463405	11
98	99670	4555.325563426378	150
98	99911	4567.7	97
98	99986	4571.2	34
98	100056	4574.307271732599	30
98	100114	4578.811452699291	44
98	100149	4581.917284720543	30
98	100217	4587.922651704799	59
98	100380	4602.432149443458	144
98	100423	4606.132511519963	36
98	100457	4609.13460020802	29
98	100524	4615.044383008866	58
98	100555	4617.751675674917	26
98	100592	4620.858232259279	30
98	100671	4627.958403347822	70
98	100777	4633.4	34
98	100831	4635.9	24
98	100904	4639.208911509078	32
98	101034	4645.214226919982	59
98	101068	4646.71524043999	14
98	101122	4649.218391633002	24
98	101246	4654.927604327822	56
98	101371	4661.8	38
98	101446	4667.1	52
98	101544	4675.907317368446	87
98	101653	4685.613080050916	96
98	101692	4688.917632568516	32
98	101764	4695.32161848407	63
98	101836	4701.726337225378	63
98	101905	4709	50
98	102062	4723.2	141
98	102114	4727.806703682811	45
98	102146	4730.409981392094	25
98	102188	4734.019766149307	35
98	102206	4735.62830813027	15
98	102222	4736.833509815985	11
98	102287	4742.538741037165	56
98	102378	4750.643646475574	80
98	102433	4757.5	35
98	102476	4761.3	37
98	102547	4767.606841839151	62
98	102738	4784.715589474485	170
98	102813	4791.425314037703	66
98	102893	4798.434758840781	69
98	102951	4803.641747307782	51
98	103026	4810.149081677629	64
98	103046	4811.95072564403	17
98	103126	4818.958497341388	69
98	103323	4838.5	165
98	103359	4841.8	32
98	103419	4847.000572555086	51
98	103450	4849.705960987256	26
98	103526	4856.314655822563	65
98	103550	4858.318806222782	19
98	103583	4861.227659318486	28
98	103738	4876.8	128
98	103836	4885.7	88
98	103858	4887.50210988929	17
98	103884	4889.705998539186	21
98	104012	4901.114770138249	113
98	104145	4913.024625210917	118
98	104218	4919.528918687867	64
98	104293	4926.038256868958	64
98	104364	4932.343049243195	62
98	104502	4947.1	111
98	104525	4949.1	19
98	104576	4953.609601232695	44
98	104632	4958.413273319808	47
98	104657	4960.515218349016	20
98	104811	4974.316804470574	137
98	104846	4977.419546741529	30
98	105015	4986.2	62
98	105077	4991.1	48
98	105185	5000.708577539408	95
98	105291	5010.11666987622	93
98	105321	5012.719171812549	25
98	105338	5014.028821293328	12
98	105444	5023.633616644049	95
98	105551	5033.139472662082	94
98	105611	5038.344012864951	51
98	105636	5040.447996975159	20
98	105789	5049.4	54
98	105854	5052.4	29
98	105940	5056.204008613827	37
98	106058	5061.70610543827	54
98	106157	5070.00984865083	82
98	106237	5077.211469766428	71
98	106268	5079.915522068948	26
98	106371	5090	80
98	106419	5094.3	42
98	106542	5105.407228881395	110
98	106591	5109.712669798063	42
98	106646	5114.421458639248	46
98	106711	5120.124752628087	56
98	106804	5128.432730067636	82
98	107023	5148.142432030912	196
98	107068	5154.5	25
98	107108	5158	34
98	107188	5165.207070922565	71
98	107216	5167.607692679103	23
98	107280	5173.214952068786	55
98	107319	5176.519652076566	32
98	107347	5178.927309508134	23
98	107432	5186.430119851116	74
98	107557	5197.738958097485	112
98	107599	5201.345048887935	35
98	107765	5207.4	34
98	107948	5213.2	57
98	108069	5218.102423775559	48
98	108211	5224.802618436035	66
98	108286	5231.511407096613	66
98	108366	5238.519915294706	69
98	108395	5241.026003597013	24
98	108447	5245.626569288819	45
98	108517	5251.833763384354	61
98	108567	5257.3	33
98	108799	5280.4	230
98	108829	5283.208351606752	27
98	108860	5286.112367208159	28
98	108923	5292.220299978928	60
98	108970	5296.720856668831	44
98	109079	5307.429064157459	106
98	109139	5313.238274933749	57
98	109169	5316.038603987728	27
98	109215	5320.439699425477	43
98	109269	5325.641495473292	51
98	109302	5328.741766957089	30
98	109349	5333.244162856601	44
