file 20967 1369149732                                           
version 2
run Join-38-20130520-16:32:19-32715
attr configname Join
attr datetime 20130520-16:32:19
attr experiment "\"Join\""
attr inifile omnetpp.ini
attr iterationvars $0=256
attr iterationvars2 "$0=256, $repetition=8"
attr measurement $0=256
attr network Network
attr processid 32715
attr repetition 8
attr replication #8
attr resultdir results
attr runnumber 38
attr seedset 38
vector 38  Network.dyn_peer[0]  lookupHopsSig:vector  ETV
38	441 20526 981 11606 22.7 975.419017504899 835 0 23 5797 51543
