file 23660 1369149732                                           
version 2
run Join-63-20130520-16:32:44-32715
attr configname Join
attr datetime 20130520-16:32:44
attr experiment "\"Join\""
attr inifile omnetpp.ini
attr iterationvars $0=2048
attr iterationvars2 "$0=2048, $repetition=3"
attr measurement $0=2048
attr network Network
attr processid 32715
attr repetition 3
attr replication #3
attr resultdir results
attr runnumber 63
attr seedset 63
vector 63  Network.dyn_peer[0]  lookupHopsSig:vector  ETV
63	444 23216 5940 31945 20.9 2184.528787505745 873 1 78 17913 487181
