file 18910 1369149732                                           
version 2
run Join-14-20130520-16:32:12-32715
attr configname Join
attr datetime 20130520-16:32:12
attr experiment "\"Join\""
attr inifile omnetpp.ini
attr iterationvars $0=64
attr iterationvars2 "$0=64, $repetition=4"
attr measurement $0=64
attr network Network
attr processid 32715
attr repetition 4
attr replication #4
attr resultdir results
attr runnumber 14
attr seedset 14
vector 14  Network.dyn_peer[0]  lookupHopsSig:vector  ETV
14	438 18472 414 6874 20.4 627.323844020562 772 1 11 2530 10224
