file 19490 1369060335                                           
version 2
run Join-28-20130520-16:32:15-32715
attr configname Join
attr datetime 20130520-16:32:15
attr experiment "\"Join\""
attr inifile omnetpp.ini
attr iterationvars $0=128
attr iterationvars2 "$0=128, $repetition=8"
attr measurement $0=128
attr network Network
attr processid 32715
attr repetition 8
attr replication #8
attr resultdir results
attr runnumber 28
attr seedset 28

vector 28  Network.dyn_peer[0]  lookupHopsSig:vector  ETV
28	441 19049 610 8674 22.3 775.651736613717 792 1 15 3874 23794
