file 23767 1369060360                                           
version 2
run Join-60-20130520-16:32:37-32715
attr configname Join
attr datetime 20130520-16:32:37
attr experiment "\"Join\""
attr inifile omnetpp.ini
attr iterationvars $0=2048
attr iterationvars2 "$0=2048, $repetition=0"
attr measurement $0=2048
attr network Network
attr processid 32715
attr repetition 0
attr replication #0
attr resultdir results
attr runnumber 60
attr seedset 60

vector 60  Network.dyn_peer[0]  lookupHopsSig:vector  ETV
60	444 23323 5912 34353 21.9 2283.350913170655 877 1 76 18826 537134
