version 2
run Join-0-20130520-16:32:09-32715
attr configname Join
attr datetime 20130520-16:32:09
attr experiment "\"Join\""
attr inifile omnetpp.ini
attr iterationvars $0=32
attr iterationvars2 "$0=32, $repetition=0"
attr measurement $0=32
attr network Network
attr processid 32715
attr repetition 0
attr replication #0
attr resultdir results
attr runnumber 0
attr seedset 0

vector 0  Network.dyn_peer[0]  lookupHopsSig:vector  ETV
0	280	20.3	3
0	283	20.5	1
0	288	20.801381829495	2
0	292	21.009165284312	1
0	297	21.311131107879	2
0	317	24.2	2
0	321	24.5	2
0	326	24.800135716418	2
0	332	25.201106729129	3
0	352	28.2	2
0	355	28.4	1
0	359	28.609719449989	1
0	364	28.919484044641	2
0	368	29.128265979326	1
0	375	29.632952491309	4
0	394	32.1	1
0	399	32.5	3
0	404	32.804511592139	2
0	410	33.211904227952	3
0	416	33.612104104675	3
0	439	36.5	5
0	443	36.8	2
0	449	37.201201965645	3
0	453	37.404796410334	1
0	459	37.807757812326	3
0	480	40.3	3
0	486	40.8	4
0	491	41.108804758931	2
0	497	41.512947388814	3
0	502	41.722771218552	1
0	520	44	0
0	527	44.6	5
0	533	45.008651025639	3
0	537	45.21130492055	1
0	543	45.616394610159	3
0	548	45.921627090688	2
0	566	48	0
0	571	48.4	3
0	578	48.900831124866	4
0	582	49.110124086844	1
0	603	52.3	3
0	606	52.5	1
0	613	53.008423420791	4
0	618	53.309741399411	2
0	623	53.616213140796	2
0	628	53.923376412774	2
0	648	56.2	2
0	652	56.5	2
0	657	56.803978207516	2
0	663	57.209843336846	3
0	683	60.2	2
0	687	60.5	2
0	694	61.003698080957	4
0	699	61.303745035777	2
0	705	61.705209453409	3
0	714	62.211987618802	4
0	719	62.517683802845	2
0	740	66.3	3
0	744	66.6	2
0	748	66.809621885449	1
0	753	67.113954766087	2
0	757	67.316442297484	1
0	761	67.524003364398	1
0	766	67.733725920538	1
0	771	67.948606723694	1
0	779	68.260718453509	2
0	800	72.3	3
0	804	72.6	2
0	810	72.908963231104	2
0	815	73.217427317765	2
0	820	73.527213027004	2
0	824	73.734207819778	1
0	844	76.2	2
0	847	76.4	1
0	852	76.704118201418	2
0	856	76.908083258806	1
0	860	77.114837649577	1
0	867	77.623648681585	4
0	878	78.326146644335	6
0	883	78.535091556414	1
0	889	78.943908910009	3
0	895	79.353563072195	3
0	916	82.3	3
0	921	82.7	3
0	926	83.00501324383	2
0	930	83.210345306346	1
0	934	83.419906142743	1
0	938	83.622211472974	1
0	946	84.028651374939	3
0	965	88.1	1
0	969	88.4	2
0	973	88.604748675215	1
0	979	89.004940607221	3
0	985	89.409641929105	3
0	1006	92.3	3
0	1010	92.6	2
0	1016	93.002900776099	3
0	1023	93.412915552628	3
0	1029	93.724694937973	2
0	1049	96.2	2
0	1052	96.4	1
0	1057	96.700923738866	2
0	1062	97.006623387981	2
0	1080	100	0
0	1087	100.6	5
0	1093	101.000336250937	3
0	1097	101.206868259091	1
0	1103	101.523078909493	2
0	1107	101.72628888193	1
0	1126	104.1	1
0	1132	104.503675618716	3
0	1137	104.804648217982	2
0	1142	105.018847289529	1
0	1161	108.1	1
0	1165	108.4	2
0	1170	108.707038885855	2
0	1176	109.111518147591	3
0	1181	109.412520416456	2
0	1202	112.3	3
0	1207	112.7	3
0	1213	113.104692491716	3
0	1218	113.414680961744	2
0	1224	113.823092363042	3
0	1232	114.224586846088	3
0	1252	118.2	2
0	1255	118.4	1
0	1262	118.905083154502	4
0	1266	119.111238750176	1
0	1285	122.1	1
0	1288	122.3	1
0	1293	122.608649332928	2
0	1299	122.920836489775	2
0	1322	126.5	5
0	1325	126.7	1
0	1334	127.12122461472	3
0	1340	127.525760041522	3
0	1345	127.829960795198	2
0	1365	130.2	2
0	1368	130.4	1
0	1374	130.80975521512	3
0	1378	131.009921494814	1
0	1384	131.418479528244	3
0	1390	131.82078695166	3
0	1397	132.120904092475	2
0	1401	132.328553209454	1
0	1406	132.632152990044	2
0	1426	136.2	2
0	1433	136.8	5
0	1438	137.00860440419	1
0	1443	137.31349989361	2
0	1463	140.2	2
0	1469	140.7	4
0	1473	140.900185217941	1
0	1480	141.401895083868	4
0	1486	141.809832060892	3
0	1495	142.314466570653	4
0	1502	142.81670581748	4
0	1506	143.0254515471	1
0	1511	143.328905063885	2
0	1532	146.3	3
0	1537	146.7	3
0	1542	147.005966554128	2
0	1548	147.314121385847	2
0	1556	147.820768590348	4
0	1565	148.326983374415	4
0	1572	148.827487075002	4
0	1577	149.133259360854	2
0	1598	152.3	3
0	1602	152.6	2
0	1609	153.10267262534	4
0	1614	153.408812284865	2
0	1632	156	0
0	1635	156.2	1
0	1641	156.607508442469	3
0	1646	156.914809662731	2
0	1667	160.3	3
0	1673	160.8	4
0	1677	161.002123905019	1
0	1681	161.204222342559	1
0	1686	161.408308704847	1
0	1692	161.71993992241	2
0	1712	164.2	2
0	1716	164.5	2
0	1721	164.809702366848	2
0	1727	165.211976513139	3
0	1731	165.41878196008	1
0	1736	165.721325524907	2
0	1758	168.4	4
0	1764	168.9	4
0	1771	169.404878377059	4
0	1777	169.807996335827	3
0	1784	170.116806381413	2
0	1789	170.42376981627	2
0	1795	170.833533860172	3
0	1814	174.1	1
0	1817	174.3	1
0	1823	174.700246787287	3
0	1827	174.908792923117	1
0	1831	175.109465419425	1
0	1852	178.3	3
0	1858	178.8	4
0	1865	179.306770815763	4
0	1869	179.512136607849	1
0	1875	179.82717377136	2
0	1881	180.034320740688	1
0	1887	180.444224130147	3
0	1908	184.3	3
0	1912	184.6	2
0	1918	185.009064180888	3
0	1923	185.311697404668	2
0	1946	188.5	5
0	1949	188.7	1
0	1956	189.20881585404	4
0	1961	189.512016025487	2
0	1970	190.021060275259	4
0	1977	190.524894914171	4
0	1982	190.831352760168	2
0	1986	191.037235931342	1
0	2006	194.2	2
0	2010	194.5	2
0	2017	195.000000553503	4
0	2021	195.208727060078	1
0	2042	198.3	3
0	2045	198.5	1
0	2052	199.008853376642	4
0	2057	199.310709736073	2
0	2078	202.3	3
0	2082	202.6	2
0	2086	202.804834086175	1
0	2091	203.106989162952	2
0	2095	203.314876557166	1
0	2099	203.524350263112	1
0	2103	203.726644681402	1
0	2107	203.933953239427	1
0	2113	204.142756215471	1
0	2135	208.4	4
0	2140	208.8	3
0	2145	209.105182007113	2
0	2151	209.509899522871	3
0	2156	209.810156150005	2
0	2164	210.21727198822	3
0	2169	210.519346689007	2
0	2175	210.920883632041	3
0	2180	211.225130486692	2
0	2201	214.3	3
0	2205	214.6	2
0	2209	214.802148807365	1
0	2216	215.304925094448	4
0	2221	215.606789676634	2
0	2230	216.020733322736	3
0	2251	220.3	3
0	2255	220.6	2
0	2263	221.107942728632	4
0	2268	221.409263409728	2
0	2274	221.718181095249	2
0	2292	224	0
0	2296	224.3	2
0	2301	224.608404285353	2
0	2307	225.010237083748	3
0	2311	225.212285741363	1
0	2317	225.613734218988	3
0	2337	228.2	2
0	2342	228.6	3
0	2347	228.907220806607	2
0	2351	229.116625126122	1
0	2355	229.316929655779	1
0	2360	229.532052850679	1
0	2371	230.239539486924	6
0	2392	234.3	3
0	2397	234.7	3
0	2407	235.320331406463	5
0	2412	235.626176167186	2
0	2433	238.3	3
0	2436	238.5	1
0	2444	239.102869150454	5
0	2448	239.305277438225	1
0	2453	239.612050071291	2
0	2472	242.1	1
0	2478	242.6	4
0	2483	242.909295293181	2
0	2488	243.209387693882	2
0	2511	246.5	5
0	2514	246.7	1
0	2520	247.102817301042	3
0	2525	247.409852248895	2
0	2529	247.615716350594	1
0	2549	250.2	2
0	2554	250.6	3
0	2560	251.005804471306	3
0	2566	251.415579422658	3
0	2571	251.723454844191	2
0	2579	252.038284651237	2
0	2600	256.3	3
0	2606	256.8	4
0	2610	257.002317016255	1
0	2617	257.511105713643	4
0	2623	257.92059890186	3
0	2629	258.125521584258	1
0	2649	262.2	2
0	2654	262.6	3
0	2661	263.106304479355	4
0	2666	263.413389960843	2
0	2670	263.622132840541	1
0	2674	263.827114242825	1
0	2695	266.3	3
0	2699	266.6	2
0	2705	267.006178766919	3
0	2711	267.413912027067	3
0	2730	270.1	1
0	2736	270.6	4
0	2743	271.1014814086	4
0	2748	271.409285675091	2
0	2771	274.5	5
0	2776	274.9	3
0	2783	275.30501439473	3
0	2787	275.511409119894	1
0	2806	278.1	1
0	2812	278.504282238269	3
0	2817	278.812503415618	2
0	2821	279.015481833835	1
0	2828	279.517380312973	4
0	2847	282.1	1
0	2851	282.4	2
0	2856	282.709806996735	2
0	2863	283.210785441596	4
0	2868	283.51484664647	2
0	2873	283.823468561611	2
0	2879	284.029160669176	1
0	2883	284.238889864077	1
0	2887	284.442325919071	1
0	2909	288.4	4
0	2914	288.707740473363	2
0	2920	289.111333187534	3
0	2926	289.418659628265	2
0	2930	289.619470642188	1
0	2934	289.82248895093	1
0	2942	290.226561362607	3
0	2961	294.1	1
0	2967	294.503253103091	3
0	2971	294.703787374865	1
0	2975	294.913316081576	1
0	2994	298.1	1
0	2998	298.4	2
0	3003	298.707705807487	2
0	3010	299.210751627789	4
0	3015	299.512221094205	2
0	3036	302.3	3
0	3041	302.606774118244	2
0	3048	302.924052509349	2
0	3052	303.128373989826	1
0	3058	303.345674417487	1
0	3078	306.2	2
0	3084	306.7	4
0	3090	307.100965496143	3
0	3095	307.403668775178	2
0	3100	307.706230171007	2
0	3107	308.007544998965	2
0	3115	308.418782865809	3
0	3136	312.3	3
0	3142	312.8	4
0	3149	313.30456140564	4
0	3154	313.609807331798	2
0	3160	313.921060298329	2
0	3182	316.4	4
0	3188	316.9	4
0	3192	317.103799269513	1
0	3197	317.412067973189	2
0	3202	317.713879482817	2
0	3224	320.4	4
0	3230	320.9	4
0	3235	321.206600398616	2
0	3241	321.613570371034	3
0	3246	321.91563631709	2
0	3267	324.3	3
0	3273	324.8	4
0	3279	325.202594225655	3
0	3284	325.50437789919	2
0	3305	328.3	3
0	3313	329	6
0	3317	329.202728218969	1
0	3322	329.511648715587	2
0	3327	329.815357243587	2
0	3333	330.016691895693	1
0	3354	334.3	3
0	3358	334.6	2
0	3362	334.800446122973	1
0	3366	335.007597910461	1
0	3370	335.215595869293	1
0	3374	335.42050405546	1
0	3379	335.721273619899	2
0	3399	338.2	2
0	3402	338.4	1
0	3407	338.704884100616	2
0	3412	339.010659530106	2
0	3432	342.2	2
0	3435	342.4	1
0	3439	342.604752894444	1
0	3443	342.805106518806	1
0	3447	343.012942998483	1
0	3452	343.317247022878	2
0	3458	343.722811317142	3
0	3477	346.1	1
0	3480	346.3	1
0	3484	346.50681392512	1
0	3488	346.713308555436	1
0	3496	347.122765358025	3
0	3502	347.429948962502	2
0	3522	350.2	2
0	3525	350.4	1
0	3529	350.601294123376	1
0	3535	351.010333962891	3
0	3539	351.216123186765	1
0	3546	351.7215612463	4
0	3550	351.922483848	1
0	3571	354.3	3
0	3576	354.7	3
0	3582	355.012589824153	2
0	3587	355.319831500514	2
0	3607	358.2	2
0	3612	358.6	3
0	3619	359.104263058779	4
0	3626	359.61116330898	4
0	3636	360.028693707307	3
0	3658	364.4	4
0	3662	364.7	2
0	3666	364.906360610565	1
0	3672	365.313674583982	3
0	3678	365.716074786719	3
0	3682	365.92374442178	1
0	3702	368.2	2
0	3708	368.609591666029	3
0	3714	369.011920320775	3
0	3719	369.316501709024	2
0	3723	369.521535983289	1
0	3728	369.82744582492	2
0	3749	372.3	3
0	3755	372.8	4
0	3759	373.000974686865	1
0	3765	373.410493431612	3
0	3770	373.716710216518	2
0	3775	373.93109795426	1
0	3781	374.139305625457	1
0	3787	374.449970385281	2
0	3807	378.2	2
0	3813	378.7	4
0	3817	378.900944579157	1
0	3823	379.307233563551	3
0	3827	379.513569642427	1
0	3848	382.3	3
0	3852	382.6	2
0	3856	382.804240322518	1
0	3861	383.108714105512	2
0	3865	383.311300946168	1
0	3869	383.518577909538	1
0	3874	383.827068292594	2
0	3896	386.4	4
0	3900	386.7	2
0	3905	387.001197713483	2
0	3910	387.304751401978	2
0	3916	387.709190188775	3
0	3923	388.012757257673	2
0	3943	392.2	2
0	3950	392.708453576844	4
0	3956	393.112466171814	3
0	3960	393.317828917188	1
0	3966	393.727121831321	3
0	3974	394.133924532879	3
0	3994	398.2	2
0	3999	398.6	3
0	4006	398.914156785154	2
0	4010	399.114716443457	1
0	4014	399.317983452324	1
0	4021	399.623547951447	2
0	4041	402.2	2
0	4046	402.6	3
0	4053	402.909574766525	2
0	4057	403.116073086266	1
0	4063	403.422199735794	2
0	4081	406	0
0	4086	406.4	3
0	4092	406.80253191191	3
0	4097	407.011553354776	1
0	4101	407.21531562059	1
0	4105	407.415435982821	1
0	4124	410.1	1
0	4130	410.6	4
0	4137	411.102446514088	4
0	4141	411.312189076258	1
0	4146	411.525835758269	1
0	4150	411.726292354688	1
0	4170	414.2	2
0	4175	414.6	3
0	4181	415.006387617546	3
0	4185	415.214457845922	1
0	4205	418.2	2
0	4210	418.6	3
0	4216	419.000653042062	3
0	4221	419.303780574989	2
0	4226	419.519631280874	1
0	4232	419.823219737796	2
0	4253	422.3	3
0	4258	422.7	3
0	4265	423.202460631832	4
0	4270	423.508799941357	2
0	4275	423.724727323416	1
0	4295	426.2	2
0	4299	426.5	2
0	4306	426.909825221941	3
0	4312	427.220921331604	2
0	4316	427.427987078679	1
0	4320	427.635369344487	1
0	4343	430.5	5
0	4347	430.8	2
0	4353	431.111918181679	2
0	4358	431.421167850841	2
0	4377	434.1	1
0	4380	434.3	1
0	4384	434.504490834269	1
0	4389	434.807976027903	2
0	4394	435.117348871541	2
0	4398	435.325498536355	1
0	4421	438.5	5
0	4424	438.7	1
0	4431	439.206971416103	4
0	4438	439.716020899524	4
0	4460	442.4	4
0	4464	442.7	2
0	4468	442.902415456878	1
0	4473	443.204909657308	2
0	4495	446.4	4
0	4502	447	5
0	4507	447.308915226825	2
0	4511	447.51124942938	1
0	4515	447.71483050413	1
0	4519	447.921728186784	1
0	4539	450.2	2
0	4545	450.7	4
0	4550	451.001138166391	2
0	4558	451.609955368532	5
0	4569	452.218990992962	5
0	4574	452.520319142963	2
0	4594	456.3	3
0	4598	456.6	2
0	4603	456.907487882524	2
0	4607	457.11428903791	1
0	4614	457.42634098879	2
