file 22722 1369149732                                           
version 2
run Join-45-20130520-16:32:23-32715
attr configname Join
attr datetime 20130520-16:32:23
attr experiment "\"Join\""
attr inifile omnetpp.ini
attr iterationvars $0=512
attr iterationvars2 "$0=512, $repetition=5"
attr measurement $0=512
attr network Network
attr processid 32715
attr repetition 5
attr replication #5
attr resultdir results
attr runnumber 45
attr seedset 45
vector 45  Network.dyn_peer[0]  lookupHopsSig:vector  ETV
45	441 22281 1674 15794 21.2 1278.309225881939 874 1 33 8798 111210
