file 24170 1369149732                                           
version 2
run Join-51-20130520-16:32:27-32715
attr configname Join
attr datetime 20130520-16:32:27
attr experiment "\"Join\""
attr inifile omnetpp.ini
attr iterationvars $0=1024
attr iterationvars2 "$0=1024, $repetition=1"
attr measurement $0=1024
attr network Network
attr processid 32715
attr repetition 1
attr replication #1
attr resultdir results
attr runnumber 51
attr seedset 51
vector 51  Network.dyn_peer[0]  lookupHopsSig:vector  ETV
51	444 23726 3062 23388 20.2 1741.292854007916 905 1 52 13505 262403
