version 2
run Join-86-20130520-16:35:58-32715
attr configname Join
attr datetime 20130520-16:35:58
attr experiment "\"Join\""
attr inifile omnetpp.ini
attr iterationvars $0=8192
attr iterationvars2 "$0=8192, $repetition=6"
attr measurement $0=8192
attr network Network
attr processid 32715
attr repetition 6
attr replication #6
attr resultdir results
attr runnumber 86
attr seedset 86

vector 86  Network.dyn_peer[0]  lookupHopsSig:vector  ETV
86	22308	25.922411226263	66
86	22358	30.12674498009	41
86	22405	34.227626950451	40
86	22455	38.631950290863	43
86	22659	46.7	47
86	22687	47.6	8
86	22859	56.605631114251	89
86	22911	61.206847938952	45
86	22957	65.208968668292	39
86	23014	70.117203684217	48
86	23070	75.126721108584	49
86	23112	78.732924322635	35
86	23162	83.140149996809	43
86	23226	88.74519628971	55
86	23297	95.053989715996	62
86	23367	101.262912213779	61
86	23412	105.168567586336	38
86	23456	108.971659704073	37
86	23495	112.277276488171	32
86	23527	117.5	15
86	23581	122.2	46
86	23678	130.904572564065	86
86	23739	136.206920445502	52
86	23797	141.411764024711	51
86	23837	144.811877697609	33
86	23911	151.4145949397	65
86	24036	158	40
86	24091	160.5	24
86	24145	162.909685825577	23
86	24315	170.910885128811	79
86	24455	183.512896472957	125
86	24479	185.518837301257	19
86	24511	188.12414169858	25
86	24570	193.43405300331	52
86	24629	198.537638166792	50
86	24654	200.638975490548	20
86	24749	209.148380390559	84
86	24874	216.1	41
86	25007	222.3	61
86	25035	223.603592816335	12
86	25197	231.011709624433	73
86	25331	237.317150803103	62
86	25412	241.320350081291	39
86	25458	245.32429771667	39
86	25500	248.92774102558	35
86	25519	250.428181452556	14
86	25620	261.9	79
86	25707	269.7	77
86	25717	270.308928955295	5
86	25732	271.615516915405	12
86	25804	275.7	17
86	25851	277.9	21
86	25895	279.802487307228	18
86	25935	281.604551168214	17
86	25999	284.407736052921	27
86	26132	290.514928946973	60
86	26163	293.220415689119	26
86	26182	294.728488069298	14
86	26266	304.2	62
86	26344	311.3	70
86	26371	313.604566311088	22
86	26417	317.613196399881	39
86	26504	325.316331170604	76
86	26519	326.425105739137	10
86	26564	330.325695387191	38
86	26603	336.2	22
86	26697	344.7	84
86	26747	349.103660407464	43
86	26796	353.407410752945	42
86	26839	357.107656602851	36
86	26933	365.50946927184	83
86	27020	373.210489661034	76
86	27088	379.215696542707	59
86	27110	381.02284010904	17
86	27203	389.323737236779	82
86	27218	390.428173316093	10
86	27410	401.4	74
86	27531	407.1	56
86	27623	411.305740624745	41
86	27637	411.90584632914	5
86	27737	416.406584127039	44
86	27887	423.306768349426	68
86	27953	426.213113543331	28
86	28042	431.6	16
86	28117	435	33
86	28173	437.601366861111	25
86	28291	442.905558604823	52
86	28319	444.106045845739	11
86	28473	451.314585256126	71
86	28541	454.317944555067	29
86	28703	462.420550285504	80
86	28761	467.627643914342	51
86	28844	474.933379832727	72
86	28917	481.442483927148	64
86	28954	484.551605536315	30
86	29047	492.860741622069	82
86	29115	497.5	15
86	29259	506	84
86	29352	514.306375620258	82
86	29435	521.811618912601	74
86	29530	530.11486284938	82
86	29562	532.923170907991	27
86	29633	539.232444532481	62
86	29727	547.633421359972	83
86	29799	555.2	52
86	29840	558.8	35
86	29868	561.203441088371	23
86	29972	570.404017020516	91
86	30002	573.010009529775	25
86	30038	576.015399524663	29
86	30093	580.925245142712	48
86	30169	587.728104060283	67
86	30248	594.635184283512	68
86	30289	598.141037103726	34
86	30367	607.8	58
86	30463	616.3	84
86	30508	620.208730427355	38
86	30548	623.817950473958	35
86	30632	631.219372159777	73
86	30723	639.324120478244	80
86	30817	647.730576847338	83
86	30832	648.836782576584	10
86	30896	656.2	42
86	30991	664.8	85
86	31085	673.203868605247	83
86	31092	673.708340999383	4
86	31135	677.416576812466	36
86	31238	686.525613677122	90
86	31292	691.328605056828	47
86	31339	695.432818615503	40
86	31375	699.8	18
86	31406	702.4	25
86	31454	706.602080317097	41
86	31578	717.807628678408	111
86	31623	721.715952687464	38
86	31637	722.716794816116	9
86	31681	726.523543268046	37
86	31719	729.931677897045	33
86	31750	733.3	13
86	31815	739.1	57
86	31880	744.809755066626	56
86	31957	751.719333371473	68
86	32037	758.723893712055	69
86	32068	761.430220842497	26
86	32128	766.630267495692	51
86	32210	776.1	61
86	32299	784.1	79
86	32385	791.90966961683	77
86	32428	795.616489542494	36
86	32503	802.121161610478	64
86	32584	809.426660814269	72
86	32660	816.03164384678	65
86	32740	823.237058579584	71
86	32771	825.937504527368	26
86	32837	832.4	44
86	32907	838.7	62
86	32971	844.302674807712	55
86	33050	851.41143591079	70
86	33128	858.216859602551	67
86	33223	866.725009958811	84
86	33276	873.3	33
86	33374	882	86
86	33490	892.404019116833	103
86	33543	897.113876098116	46
86	33626	904.423851910392	72
86	33708	911.829609212982	73
86	33820	921.837595043838	99
86	33874	926.447075025789	45
86	33967	932.6	26
86	34076	937.8	51
86	34186	942.809265911858	49
86	34278	947.112262717449	42
86	34492	956.913151578461	97
86	34677	966.514130506811	95
86	34788	976.42247445045	98
86	34794	976.823354192352	3
86	34941	985.2	52
86	34970	986.4	11
86	35018	988.507204382708	20
86	35094	992.010347427399	34
86	35163	995.918536315559	38
86	35216	1000.422966762016	44
86	35260	1004.227225705942	37
86	35285	1006.33060524953	20
86	35301	1007.733619026284	13
86	35343	1011.334222512997	35
86	35395	1017.2	32
86	35465	1023.5	62
86	35584	1034.004687233157	104
86	35681	1042.708137023644	86
86	35698	1044.011663350799	12
86	35731	1046.917182507206	28
86	35737	1047.318206359886	3
86	35783	1051.322571080091	39
86	35830	1055.42530258441	40
86	35865	1058.334239605969	28
86	35941	1065.138935360313	67
86	35998	1070.045519384092	48
86	36096	1078.851974532441	87
86	36164	1086.6	46
86	36205	1090.2	35
86	36255	1094.601703728539	43
86	36285	1097.206365708228	25
86	36332	1101.315231474529	40
86	36376	1105.117449232254	37
86	36406	1107.726877969051	25
86	36571	1116.2	62
86	36642	1122.6	63
86	36701	1127.900081392873	52
86	36750	1132.004044257958	40
86	36819	1138.112891332701	60
86	36915	1146.713232888579	85
86	37039	1157.919605549629	111
86	37082	1161.622237057701	36
86	37203	1172.327848292078	106
86	37273	1181	50
86	37361	1188.9	78
86	37389	1191.301313194751	23
86	37417	1193.703173690621	23
86	37443	1195.911065807935	21
86	37514	1202.019066719055	60
86	37547	1204.928733897531	28
86	37574	1207.238403808621	22
86	37601	1209.547946138635	22
86	37643	1214.3	23
86	37692	1218.7	43
86	37772	1225.906473806812	71
86	37873	1234.806483121641	88
86	37952	1241.908998764721	70
86	38016	1247.516390790809	55
86	38079	1253.024824362159	54
86	38151	1259.432672095211	63
86	38200	1263.741574649632	42
86	38267	1269.647677678342	58
86	38308	1273.150288270108	34
86	38377	1279.253772438211	60
86	38406	1283.3	13
86	38445	1286.7	33
86	38539	1295.102938721028	83
86	38614	1301.809550506977	66
86	38674	1307.012138478634	51
86	38736	1312.41912271587	53
86	38770	1315.427068216128	29
86	38824	1321.4	34
86	38887	1327	55
86	38906	1328.505222742604	14
86	38955	1332.809311098235	42
86	39043	1340.609928906401	77
86	39088	1344.516946406051	38
86	39124	1347.717437980003	31
86	39155	1350.227220435662	24
86	39164	1350.936846735058	6
86	39270	1360.344735380813	93
86	39302	1363.151376852022	27
86	39501	1373.7	77
86	39596	1378	42
86	39689	1382.306538558928	42
86	39786	1386.808571367631	44
86	39812	1387.915446219012	10
86	39863	1390.123658793818	21
86	40068	1399.725784044456	95
86	40108	1401.528289768769	17
86	40198	1405.730382664446	41
86	40236	1407.337774990087	15
86	40302	1410.246804551056	28
86	40640	1427.7	137
86	40692	1432.2	44
86	40791	1441.105247261393	88
86	40872	1448.206568691496	70
86	40883	1449.113377177229	8
86	40976	1457.416078778372	82
86	41019	1461.120856459834	36
86	41033	1462.126254279442	9
86	41092	1469.9	39
86	41151	1475.1	51
86	41220	1481.202185810406	60
86	41282	1486.604203418702	53
86	41324	1490.213208619031	35
86	41395	1496.516342307634	62
86	41465	1502.725424175918	61
86	41510	1506.630146642007	38
86	41541	1509.338717360555	26
86	41610	1516.7	47
86	41659	1521.1	43
86	41729	1527.308636598621	61
86	41789	1532.51051806968	51
86	41867	1539.513240460015	69
86	41889	1541.315792074442	17
86	41973	1548.71767571919	73
86	41996	1550.618262471897	18
86	42074	1557.618673405701	69
86	42103	1561.3	13
86	42180	1568.1	67
86	42194	1569.302300283932	11
86	42209	1570.409607218855	10
86	42220	1571.312191965258	8
86	42259	1574.621569958167	32
86	42313	1579.431505101696	47
86	42402	1587.338640027698	78
86	42445	1592.5	25
86	42481	1595.8	32
86	42542	1601.10324010597	52
86	42605	1606.610366620392	54
86	42719	1616.814100476946	101
86	42815	1625.423650040596	85
86	42954	1637.924698156914	124
86	43092	1651.3	113
86	43105	1652.3	9
86	43153	1656.505485238409	41
86	43207	1661.305558068411	47
86	43237	1663.908007559558	25
86	43346	1673.61634989955	96
86	43423	1680.316462229758	66
86	43473	1684.724710479744	43
86	43563	1692.731724118038	79
86	43655	1700.940849878263	81
86	43682	1703.244700021425	22
86	43757	1709.951408184757	66
86	43796	1714.1	21
86	43843	1718.3	41
86	43872	1720.807854868199	24
86	43891	1722.311702799175	14
86	43936	1726.214623812813	38
86	44024	1736.4	64
86	44076	1741.1	46
86	44103	1743.408302321569	22
86	44149	1747.414989284342	39
86	44170	1749.120042164316	16
86	44261	1757.228906678049	80
86	44383	1764	40
86	44473	1771.4	73
86	44574	1780.308559528787	88
86	44658	1787.916273240025	75
86	44744	1795.52179495541	75
86	44766	1797.32453209807	17
86	44851	1804.833401924623	74
86	44937	1812.435371750674	75
86	45024	1820.139314539927	76
86	45136	1832.8	88
86	45266	1844.5	116
86	45314	1848.708225313182	41
86	45405	1856.81088700034	80
86	45495	1864.81707013004	79
86	45585	1872.82036029465	79
86	45675	1880.822242803086	79
86	45719	1886.7	27
86	45789	1893	62
86	45816	1895.306329086376	22
86	45887	1901.614316295073	62
86	45928	1905.117413116288	34
86	45958	1907.720126257568	25
86	45980	1909.520824846775	17
86	46037	1915.7	37
86	46070	1918.5	27
86	46146	1925.305460710786	67
86	46198	1929.914430832816	45
86	46264	1935.721766258468	57
86	46322	1940.726913583834	49
86	46350	1943.129892199406	23
86	46412	1948.539092636311	53
86	46481	1954.647510624479	60
86	46547	1962.6	46
86	46648	1971.8	91
86	46700	1976.203653036369	43
86	46752	1980.807895523362	45
86	46783	1983.510972277204	26
86	46870	1991.217123572978	76
86	46937	1997.12386088737	58
86	46997	2004.1	41
86	47020	2006.1	19
86	47054	2009.100280889582	29
86	47084	2011.704645603969	25
86	47141	2016.613539442032	48
86	47230	2026.5	65
86	47248	2028	14
86	47266	2029.608125524441	15
86	47286	2031.209619810347	15
86	47316	2033.812408762882	25
86	47373	2038.71754559837	48
86	47460	2046.423313871561	76
86	47541	2052	20
86	47704	2059.8	77
86	47785	2066.301033755175	64
86	47859	2072.909515010446	65
86	47907	2077.112618292953	41
86	47999	2085.316740233312	81
86	48032	2088.01829500214	26
86	48087	2092.924211543992	48
86	48170	2100.225040905492	72
86	48211	2103.927936593834	36
86	48248	2107.9	19
86	48271	2109.9	19
86	48305	2112.703461058773	27
86	48336	2115.403485049768	26
86	48436	2124.20764845217	87
86	48454	2125.807777641416	15
86	48522	2131.808253283445	59
86	48561	2135.114085828599	32
86	48661	2145.6	76
86	48713	2150.1	44
86	48766	2154.804332455396	46
86	48795	2157.304957560707	24
86	48911	2167.712277047837	103
86	48948	2170.812981064783	30
86	48996	2175.017929127407	41
86	49032	2178.027299445692	29
86	49040	2178.629601750743	5
86	49065	2180.732247782392	20
86	49141	2187.533934473866	67
86	49225	2196	60
86	49256	2198.8	27
86	49310	2203.601391100357	47
86	49368	2208.605750433585	49
86	49389	2210.30987142912	16
86	49410	2212.015182062749	16
86	49424	2213.218899472978	11
86	49494	2220.8	48
86	49545	2225.4	45
86	49643	2234.003264484279	85
86	49673	2236.61083384714	25
86	49767	2245.015252867754	83
86	49870	2254.116715311213	90
86	49930	2259.521179460224	53
86	49970	2262.924355989317	33
86	50012	2268.4	24
86	50065	2273.2	47
86	50126	2278.505820115571	52
86	50167	2282.006475169755	34
86	50238	2288.308741526602	62
86	50304	2294.117891434741	57
86	50353	2298.4250931031	42
86	50423	2304.627838173769	61
86	50513	2314.6	66
86	50628	2325	103
86	50655	2327.302953101333	22
86	50684	2329.805630868945	24
86	50713	2332.10814047851	22
86	50738	2334.211981331211	20
86	50814	2341.021291672124	67
86	50898	2350.3	63
86	50933	2353.5	31
86	50948	2354.605016887211	10
86	50972	2356.610148272942	19
86	50983	2357.51340786297	8
86	51032	2361.819091949175	42
86	51065	2364.527267235471	26
86	51105	2370.3	23
86	51125	2372	16
86	51177	2376.603631750163	45
86	51184	2377.109233668408	4
86	51212	2379.509982381058	23
86	51266	2384.119646282328	45
86	51336	2390.323083700692	61
86	51403	2396.223374121511	58
86	51428	2398.328846399002	20
86	51532	2410	80
86	51542	2410.9	8
86	51606	2416.501905659306	55
86	51717	2426.406743302318	98
86	51764	2430.509301572342	40
86	51831	2436.414298082885	58
86	51897	2442.223747039233	57
86	51933	2445.428447835608	31
86	51978	2449.330736272937	38
86	52013	2452.233638900796	28
86	52073	2457.63601719552	53
86	52167	2467.1	71
86	52246	2474.1	69
86	52318	2480.507800082506	63
86	52340	2482.313953001547	17
86	52388	2486.5143676809	41
86	52399	2487.421972629021	8
86	52418	2488.927061216536	14
86	52488	2495.127798592271	61
86	52547	2500.23610110246	50
86	52601	2505.036799522171	47
86	52615	2506.038001218296	9
86	52722	2515.741777127457	96
86	52776	2520.344215783925	45
86	52806	2522.948593052889	25
86	52895	2532.6	66
86	52914	2534.2	15
86	52950	2537.406954356259	31
86	52996	2541.409128985855	39
86	53107	2551.309515383458	98
86	53210	2560.414680084428	90
86	53274	2566.018885795045	55
86	53299	2568.127462162568	20
86	53373	2574.737050348759	65
86	53399	2576.944143232129	21
86	53408	2577.646723721517	6
86	53454	2581.647910274849	39
86	53497	2586.3	23
86	53545	2590.6	42
86	53644	2599.501316020363	88
86	53683	2602.806089200431	32
86	53708	2604.906845670167	20
86	53800	2613.111074813913	81
86	53848	2616.5	5
86	53956	2621.5	49
86	54068	2626.504944666191	49
86	54186	2632.111032415844	55
86	54213	2634.420625376053	22
86	54266	2639.128665158996	46
86	54302	2642.136855008421	29
86	54378	2651.7	57
86	54392	2652.8	10
86	54437	2656.701650763987	38
86	54448	2657.606128904604	8
86	54461	2658.506902244371	8
86	54572	2668.407872143607	98
86	54622	2672.809951399758	43
86	54666	2676.618704700565	37
86	54691	2678.725362289468	20
86	54703	2679.73378460162	9
86	54717	2680.739648210261	9
86	54772	2685.643108496236	48
86	54847	2689.9	19
86	54888	2691.8	18
86	54900	2692.205265709375	3
86	55073	2700.211947976561	79
86	55151	2703.920216284848	36
86	55213	2708.926951185848	49
86	55296	2716.23677083114	72
86	55339	2722.6	26
86	55408	2728.8	61
86	55478	2735.008990618879	61
86	55565	2742.715604459998	76
86	55606	2746.218416892372	34
86	55660	2751.024137562469	47
86	55688	2753.424462528847	23
86	55736	2757.630838805293	41
86	55885	2765.3	53
86	55980	2769.7	43
86	56173	2778.802783311852	90
86	56205	2781.609191135742	27
86	56257	2786.010156014921	43
86	56313	2791.019363890684	49
86	56337	2793.027088738649	19
86	56365	2795.428780975555	23
86	56444	2802.338479896098	68
86	56693	2812.8	68
86	56742	2815	21
86	56848	2819.806301991452	47
86	56944	2824.11569143586	42
86	57018	2827.522241739813	33
86	57094	2831.028209832122	34
86	57171	2834.436309387173	33
86	57211	2836.241490648227	17
86	57303	2841.649222256491	53
86	57322	2843.154050549104	14
86	57381	2848.262031273563	50
86	57396	2849.567063307178	12
86	57415	2851.076031249019	14
86	57492	2859.6	56
86	57551	2864.8	51
86	57585	2867.809076053304	29
86	57642	2872.714177078056	48
86	57708	2878.520131076922	57
86	57779	2884.822944232694	62
86	57818	2888.125183754396	32
86	57830	2889.134726528243	9
86	57876	2893.135699244527	39
86	57896	2894.741393468004	15
86	57929	2897.646355130387	28
86	57986	2903.9	39
86	58073	2911.7	77
86	58118	2915.603044621732	38
86	58189	2921.906466450972	62
86	58226	2925.010140391773	30
86	58253	2927.314278596384	22
86	58277	2929.321073323144	19
86	58310	2932.025743177091	26
86	58441	2946.5	105
86	58508	2952.5	59
86	58555	2956.601429909532	40
86	58646	2964.7046056049	80
86	58736	2972.712772127185	79
86	58799	2978.222487440218	54
86	58826	2980.525110961221	22
86	58874	2987.1	31
86	58923	2991.5	43
86	58978	2996.203419602108	46
86	59103	3007.508451129568	112
86	59163	3012.710027488462	51
86	59196	3015.611459937755	28
86	59242	3019.616033499259	39
86	59284	3024.5	25
86	59329	3028.5	39
86	59460	3040.201222797932	116
86	59526	3046.010703159842	57
86	59574	3050.214332613529	41
86	59672	3059.023152554669	87
86	59776	3068.225499401684	91
86	59806	3070.832949954965	25
86	59832	3073.036890778939	21
86	59937	3082.344640055312	92
86	59986	3086.6490160214	42
86	60093	3093.3	33
86	60126	3094.8	14
86	60272	3101.602966634084	67
86	60352	3105.207985272521	35
86	60424	3108.510442160136	32
86	60484	3111.213033232731	26
86	60536	3113.619351177916	23
86	60638	3118.7	27
86	60661	3119.8	10
86	60735	3123.208416247353	33
86	60816	3127.108581047054	38
86	60902	3134.715627521284	75
86	61008	3144.122010782831	93
86	61038	3146.729946023344	25
86	61096	3153.8	38
86	61114	3155.3	14
86	61152	3158.500440462946	31
86	61183	3161.20180991748	26
86	61234	3165.705766789311	44
86	61241	3166.005887566333	2
86	61270	3168.511151698404	24
86	61340	3174.71499261978	61
86	61418	3183.6	56
86	61443	3185.8	21
86	61502	3190.902338129736	50
86	61575	3197.406778434989	64
86	61646	3203.707802779517	62
86	61689	3207.416380539232	36
86	61735	3211.418529132023	39
86	61764	3213.924026486857	24
86	61814	3219.2	32
86	61893	3226.2	69
86	61965	3232.603283735502	63
86	61970	3232.906947116621	2
86	62053	3240.214611858976	72
86	62160	3249.916111652305	96
86	62190	3252.324492660484	23
86	62264	3258.928697611114	65
86	62330	3264.7349768842	57
86	62402	3271.140241078195	63
86	62434	3273.947570659702	27
86	62621	3283.1	71
86	62706	3287	38
86	62738	3288.305065348602	12
86	62762	3289.407503839765	10
86	62908	3296.514241692201	70
86	62956	3300.718131300386	41
86	62988	3303.525722018466	27
86	63094	3312.927164916514	93
86	63137	3316.631695205389	36
86	63193	3321.636275896738	49
86	63229	3324.644665245027	29
86	63274	3328.544740021126	38
86	63375	3337.649630311678	90
86	63451	3344.259507404972	65
86	63496	3348.169332055692	38
86	63531	3351.270593105061	30
86	63584	3357.4	34
86	63596	3358.3	8
86	63621	3360.403325169815	20
86	63715	3368.80881569433	83
86	63744	3371.311512079108	24
86	63796	3375.914338035901	45
86	63838	3379.523871034375	35
86	63884	3384.6	26
86	63976	3392.9	82
86	64004	3395.303822288103	23
86	64109	3404.60999999843	92
86	64119	3405.41777302018	7
86	64224	3414.726926156786	92
86	64246	3416.529042848097	17
86	64346	3425.532819054056	89
86	64438	3433.741979584199	81
86	64524	3441.34705588488	75
86	64608	3448.750372052798	73
86	64641	3451.653695171673	28
86	64743	3460.658903683002	89
86	64797	3467.6	36
86	64832	3470.6	29
86	64882	3475.007114293226	43
86	64931	3479.309250781033	42
86	64976	3483.213855244323	38
86	65025	3487.517002239303	42
86	65079	3492.123153760308	45
86	65173	3498.7	27
86	65327	3505.9	71
86	65456	3513.005945811329	70
86	65504	3517.214078543271	41
86	65539	3520.115828288328	28
86	65555	3521.520350655953	13
86	65579	3523.524492249763	19
86	65612	3526.234029148644	26
86	65642	3528.835478618155	25
86	65664	3530.636395997147	17
86	65696	3533.444132279311	27
86	65822	3546	100
86	65898	3552.9	68
86	65927	3555.400157692413	24
86	66030	3564.504638300681	90
86	66116	3572.110550464346	75
86	66139	3574.014946747003	18
86	66180	3577.724855925075	36
86	66246	3583.533265824822	57
86	66269	3585.43442126286	18
86	66323	3590.040548092308	45
86	66472	3599.3	53
86	66493	3600.2	8
86	66687	3609.302732944348	90
86	66709	3610.208935008988	8
86	66802	3614.516045257037	42
86	67044	3626.217246159648	116
86	67050	3626.618855408853	3
86	67102	3631.21897503228	45
86	67255	3639.5	55
86	67282	3640.6	10
86	67350	3643.709855733055	30
86	67380	3645.01316490465	12
86	67446	3648.01412718657	29
86	67578	3654.119451131942	60
86	67604	3655.319675290277	11
86	67682	3658.82865903804	34
86	67695	3659.636746862683	7
86	67726	3662.144573959397	24
86	67836	3670.1	41
86	67883	3674.3	41
86	67922	3677.800226005124	34
86	67930	3678.208526589848	3
86	67941	3679.113442555603	8
86	67976	3682.013983014195	28
86	68177	3693.8	78
86	68288	3698.7	48
86	68336	3702.906585990684	41
86	68355	3704.410295661694	14
86	68401	3708.413643217884	39
86	68412	3709.316504751479	8
86	68456	3713.120448803082	37
86	68501	3717.027921765423	38
86	68580	3725.9	59
86	68691	3735.9	99
86	68775	3743.303460129238	73
86	68831	3748.107988570487	47
86	68882	3752.608442137216	44
86	68918	3755.816975136844	31
86	68999	3762.926255454553	70
86	69026	3765.235316324473	22
86	69050	3767.240236976462	19
86	69158	3776.840986193289	95
86	69189	3779.54641960017	26
86	69248	3784.651158450279	50
86	69295	3790.7	27
86	69357	3796.2	54
86	69391	3799.205136835856	29
86	69417	3801.408759329471	21
86	69460	3805.109377316884	36
86	69526	3810.913653747532	57
86	69567	3814.415830953991	34
86	69620	3819.115939135007	46
86	69795	3836.5	145
86	69892	3845.3	87
86	69933	3848.808695423989	34
86	70010	3855.716364611791	68
86	70084	3862.120706236177	63
86	70281	3873.4	74
86	70391	3878.8	53
86	70487	3887.40116019464	85
86	70506	3888.906265754661	14
86	70609	3898.008415531211	90
86	70709	3907.011997388608	89
86	70793	3914.417960682792	73
86	70937	3929.9	119
86	71051	3940	100
86	71098	3944.102994562189	40
86	71149	3948.608493925376	44
86	71197	3952.815301282227	41
86	71272	3959.52318049965	66
86	71350	3966.327295162233	67
86	71378	3968.731843516807	23
86	71448	3974.940915732461	61
86	71514	3980.749289745586	57
86	71558	3984.556994294163	37
86	71616	3989.7	17
86	71727	3999.7	99
86	71782	4004.406798819778	46
86	71892	4014.216474400353	97
86	71947	4019.123844861983	48
86	71970	4021.029983496143	18
86	71989	4022.530066949078	14
86	72035	4026.531409413523	39
86	72095	4031.93931359565	53
86	72127	4034.545840545828	25
86	72151	4036.550832539352	19
86	72196	4042.5	25
86	72269	4049.1	65
86	72306	4052.203806586458	30
86	72365	4057.510405516167	52
86	72384	4059.019382932755	14
86	72394	4059.822763214254	7
86	72461	4065.723170584669	58
86	72523	4072.3	43
86	72540	4073.9	15
86	72601	4079.205396484227	52
86	72669	4085.212888132442	59
86	72719	4089.61794944421	43
86	72788	4095.726131812518	60
86	72843	4100.434122900422	46
86	72863	4102.035843135273	15
86	72938	4108.738885567189	66
86	72994	4115.6	36
86	73113	4126.2	105
86	73161	4130.401195090275	41
86	73281	4141.210148229984	107
86	73407	4152.412413504348	111
86	73436	4154.916947227477	24
86	73470	4157.922311831729	29
86	73526	4162.729375040908	47
86	73547	4164.437581939664	16
86	73582	4167.542915419523	30
86	73620	4170.747801886414	31
86	73653	4173.655771002724	28
86	73776	4180	40
86	73823	4182.2	21
86	73882	4184.809471070771	25
86	74110	4195.417914501307	105
86	74156	4197.520142990915	20
86	74232	4200.926396372861	33
86	74266	4202.429844712391	14
86	74426	4209.932950625153	74
86	74688	4223.3	113
86	74753	4229.1	57
86	74780	4231.404130198101	22
86	74840	4236.607556879229	51
86	74868	4239.010392291566	23
86	74891	4240.913014112307	18
86	74964	4247.42206625176	64
86	74975	4248.129795468522	6
86	75012	4251.439135822265	32
86	75046	4254.239971698776	27
86	75064	4255.841794857822	15
86	75074	4256.447423466864	5
86	75091	4257.954196966708	14
86	75131	4262.1	21
86	75186	4267.1	49
86	75271	4274.601660957324	74
86	75308	4277.903393235385	32
86	75373	4283.613257954319	56
86	75400	4285.917981759845	22
86	75429	4288.220039553788	22
86	75484	4295.8	38
86	75549	4301.6	57
86	75588	4304.902896406801	32
86	75635	4309.01170723447	40
86	75650	4310.116289564265	10
86	75692	4313.922314720399	37
86	75715	4315.830150942772	18
86	75769	4321.7	37
86	75804	4324.7	29
86	75874	4330.906219877991	61
86	75896	4332.706745839842	17
86	75965	4338.808959616952	60
86	76012	4342.916394318908	40
86	76065	4347.62307072675	46
86	76087	4349.432001466678	17
86	76164	4357.5	55
86	76217	4362.1	45
86	76247	4364.704077610936	25
86	76308	4370.011811861169	52
86	76350	4373.815499890513	37
86	76401	4378.124562012293	42
86	76454	4382.829207264111	46
86	76523	4388.929651266935	60
86	76601	4397.6	56
86	76631	4400.1	24
86	76708	4407.000929711346	68
86	76796	4414.803737628826	77
86	76822	4417.004385560518	21
86	76890	4423.00675064542	59
86	76913	4424.91114855467	18
86	77020	4434.418720127808	94
86	77049	4436.920460028434	24
86	77110	4442.226461430699	52
86	77212	4451.434367919423	91
86	77289	4458.140645745942	66
86	77324	4461.246975875304	30
86	77476	4469.7	57
86	77575	4474.6	48
86	77721	4481.602846030041	69
86	77865	4488.603916610265	69
86	77953	4492.812683736772	41
86	78037	4496.915128073852	40
86	78111	4501.818879257132	48
