file 25494 1369149732                                           
version 2
run Join-93-20130520-16:41:21-32715
attr configname Join
attr datetime 20130520-16:41:21
attr experiment "\"Join\""
attr inifile omnetpp.ini
attr iterationvars $0=16384
attr iterationvars2 "$0=16384, $repetition=3"
attr measurement $0=16384
attr network Network
attr processid 32715
attr repetition 3
attr replication #3
attr resultdir results
attr runnumber 93
attr seedset 93
vector 93  Network.dyn_peer[0]  lookupHopsSig:vector  ETV
93	447 25047 43624 109733 23.50967380456 5408.915484937982 912 2 201 50109 3832269
