version 2
run Join-1-20130520-16:32:09-32715
attr configname Join
attr datetime 20130520-16:32:09
attr experiment "\"Join\""
attr inifile omnetpp.ini
attr iterationvars $0=32
attr iterationvars2 "$0=32, $repetition=1"
attr measurement $0=32
attr network Network
attr processid 32715
attr repetition 1
attr replication #1
attr resultdir results
attr runnumber 1
attr seedset 1

vector 1  Network.dyn_peer[0]  lookupHopsSig:vector  ETV
1	313	22.3	3
1	317	22.6	2
1	321	22.809445947585	1
1	326	23.109743961185	2
1	334	23.624440766289	4
1	338	23.833474785417	1
1	358	26.2	2
1	362	26.5	2
1	366	26.708921358685	1
1	371	27.01699527159	2
1	376	27.320771115041	2
1	382	27.630132130326	2
1	388	27.938308661045	2
1	395	28.247583746831	2
1	401	28.651196357065	3
1	421	32.2	2
1	426	32.6	3
1	431	32.907259979874	2
1	437	33.308523128681	3
1	444	33.817356189595	4
1	452	34.224258235491	3
1	456	34.430494957552	1
1	462	34.83697245151	3
1	468	35.244481875882	3
1	473	35.548021266799	2
1	496	38.5	5
1	500	38.8	2
1	505	39.108958862153	2
1	511	39.516486745655	3
1	516	39.820767657557	2
1	524	40.229581075846	3
1	546	44.4	4
1	550	44.7	2
1	557	45.206216957198	4
1	561	45.406954877308	1
1	566	45.708102337006	2
1	571	45.925466744343	1
1	578	46.226107417612	2
1	584	46.534159642575	2
1	605	50.3	3
1	610	50.7	3
1	614	50.902370269759	1
1	618	51.10999947043	1
1	623	51.419033265594	2
1	630	51.926749215547	4
1	637	52.232486010428	2
1	643	52.635499615433	3
1	649	53.03552831868	3
1	654	53.343255710113	2
1	676	56.4	4
1	681	56.8	3
1	685	57.005270581059	1
1	691	57.405360661013	3
1	697	57.814220081964	3
1	705	58.221310507187	3
1	711	58.624883204791	3
1	716	58.929589612841	2
1	722	59.338674964295	3
1	744	62.4	4
1	749	62.8	3
1	753	63.002690010496	1
1	757	63.211984382838	1
1	762	63.520301308732	2
1	766	63.727210277924	1
1	787	66.3	3
1	790	66.5	1
1	797	67.004724750414	4
1	801	67.206096107913	1
1	805	67.413523756183	1
1	810	67.624769271591	1
1	815	67.931737453217	2
1	835	70.2	2
1	838	70.4	1
1	844	70.805082475375	3
1	848	71.012621237306	1
1	852	71.214706920388	1
1	856	71.423937165795	1
1	862	71.824430208252	3
1	883	74.3	3
1	887	74.6	2
1	892	74.90019880132	2
1	897	75.104424044074	1
1	916	78.1	1
1	923	78.7	5
1	931	79.209621631828	4
1	938	79.712508810154	4
1	958	82.2	2
1	963	82.6	3
1	969	83.008420308933	3
1	974	83.311203497359	2
1	982	83.91244523053	5
1	1004	86.4	4
1	1009	86.8	3
1	1014	87.105700666578	2
1	1018	87.315396624034	1
1	1023	87.619575889416	2
1	1031	88.025186191613	3
1	1037	88.428864624017	3
1	1042	88.729051096917	2
1	1046	88.937181046633	1
1	1064	92	0
1	1069	92.4	3
1	1073	92.608071051912	1
1	1079	93.014200532815	3
1	1085	93.41807913927	3
1	1092	93.922348237506	4
1	1100	94.330983656032	3
1	1123	98.5	5
1	1129	99	4
1	1134	99.304283824095	2
1	1140	99.705648376366	3
1	1148	100.109267420861	3
1	1154	100.509866597809	3
1	1161	101.011399982649	4
1	1180	104.1	1
1	1185	104.5	3
1	1192	105.001074941232	4
1	1196	105.208894525858	1
1	1201	105.511151619244	2
1	1224	108.5	5
1	1230	109	4
1	1238	109.606543237715	5
1	1246	110.006668797534	3
1	1251	110.307966493662	2
1	1256	110.608686236492	2
1	1261	110.91162983121	2
1	1267	111.321302594506	3
1	1287	114.2	2
1	1290	114.4	1
1	1294	114.600739689979	1
1	1298	114.803262947445	1
1	1306	115.404784319017	5
1	1312	115.812222577589	3
1	1334	118.4	4
1	1339	118.8	3
1	1344	119.103711338953	2
1	1351	119.613411538847	4
1	1370	122.1	1
1	1374	122.4	2
1	1379	122.702986802428	2
1	1386	123.20792449956	4
1	1392	123.609968080801	3
1	1412	126.2	2
1	1416	126.5	2
1	1422	126.901567913945	3
1	1429	127.409161401937	4
1	1450	130.3	3
1	1456	130.8	4
1	1462	131.204863451065	3
1	1467	131.419065509277	1
1	1474	131.832379755029	3
1	1481	132.136932579728	2
1	1500	136.1	1
1	1503	136.3	1
1	1509	136.705797452237	3
1	1513	136.907257779673	1
1	1519	137.311059191431	3
1	1525	137.621656561001	2
1	1530	137.923813063754	2
1	1537	138.231266408059	2
1	1542	138.540430845086	2
1	1562	142.2	2
1	1566	142.5	2
1	1570	142.700663348326	1
1	1574	142.908305764451	1
1	1579	143.114133943413	1
1	1583	143.320431118498	1
1	1587	143.521173702839	1
1	1608	146.3	3
1	1612	146.6	2
1	1617	146.900665364824	2
1	1622	147.106833152663	1
1	1626	147.307786230779	1
1	1632	147.715833776433	3
1	1639	148.017266406501	2
1	1661	152.4	4
1	1666	152.8	3
1	1673	153.305246703065	4
1	1680	153.813643155178	4
1	1687	154.122891234856	2
1	1693	154.529124156001	3
1	1712	158.1	1
1	1715	158.3	1
1	1721	158.707350659656	3
1	1728	159.212578025904	4
1	1736	159.727667920821	4
1	1744	160.136746079405	3
1	1750	160.538400140532	3
1	1770	164.2	2
1	1775	164.6	3
1	1780	164.902343620862	2
1	1784	165.109629194828	1
1	1791	165.523360332276	3
1	1797	165.932850495488	3
1	1820	168.5	5
1	1826	169	4
1	1832	169.402035103177	3
1	1837	169.711191166732	2
1	1847	170.311271193839	5
1	1851	170.517686855906	1
1	1856	170.826950363017	2
1	1862	171.230850440197	3
1	1883	174.3	3
1	1886	174.5	1
1	1892	174.900241016251	3
1	1897	175.205736495444	2
1	1901	175.410256511509	1
1	1923	178.4	4
1	1929	178.9	4
1	1933	179.103948756139	1
1	1939	179.510040826021	3
1	1943	179.719673451363	1
1	1951	180.120021928605	3
1	1957	180.521761485261	3
1	1962	180.825307257598	2
1	1980	184	0
1	1984	184.3	2
1	1988	184.505056621697	1
1	1993	184.805183748359	2
1	1998	185.10539899644	2
1	2002	185.309994449247	1
1	2006	185.519474151355	1
1	2010	185.729087323927	1
1	2032	188.4	4
1	2036	188.7	2
1	2043	189.201761962603	4
1	2048	189.502815875105	2
1	2052	189.706136510832	1
1	2073	192.3	3
1	2079	192.8	4
1	2084	193.105343773367	2
1	2089	193.408791139914	2
1	2096	193.7245528293	2
1	2115	196.1	1
1	2119	196.4	2
1	2124	196.708447344452	2
1	2128	196.908686185381	1
1	2133	197.2177401085	2
1	2139	197.627397376549	3
1	2144	197.931996179182	2
1	2151	198.236295858147	2
1	2171	202.4	4
1	2176	202.8	3
1	2181	203.102857188542	2
1	2188	203.604122450125	4
1	2192	203.809024985347	1
1	2198	204.018525418418	1
1	2202	204.224516521501	1
1	2224	208.4	4
1	2229	208.8	3
1	2236	209.206520695886	3
1	2241	209.509007697884	2
1	2250	210.017081303131	4
1	2257	210.525719321125	4
1	2264	211.028871769187	4
1	2269	211.331224452454	2
1	2274	211.640153339499	2
1	2295	214.3	3
1	2299	214.6	2
1	2304	214.9019126027	2
1	2308	215.10979189504	1
1	2314	215.5156802944	3
1	2336	218.4	4
1	2339	218.6	1
1	2344	218.904201936805	2
1	2350	219.304699046955	3
1	2372	222.4	4
1	2376	222.7	2
1	2382	223.10000402023	3
1	2388	223.508679194777	3
1	2397	224.018446786215	4
1	2403	224.426308408584	3
1	2423	228.2	2
1	2427	228.406047161007	1
1	2431	228.60762472097	1
1	2438	228.923755222952	2
1	2459	232.3	3
1	2463	232.6	2
1	2468	232.812867173677	1
1	2472	233.019842268634	1
1	2479	233.527342486274	4
1	2488	234.028089725202	4
1	2493	234.336672863582	2
1	2497	234.537037560603	1
1	2517	238.2	2
1	2521	238.5	2
1	2528	239.008644794332	4
1	2532	239.20869142746	1
1	2538	239.611918237466	3
1	2543	239.914560270507	2
1	2549	240.121268158417	1
1	2570	244.3	3
1	2575	244.7	3
1	2581	245.102402176326	3
1	2589	245.706510289856	5
1	2596	246.006741977159	2
1	2603	246.510756773014	4
1	2624	250.3	3
1	2629	250.7	3
1	2636	251.205614589587	4
1	2640	251.409917062354	1
1	2644	251.611595370341	1
1	2654	252.12554413872	4
1	2658	252.332322147604	1
1	2678	256.2	2
1	2683	256.6	3
1	2687	256.800099997273	1
1	2692	257.103533459668	2
1	2699	257.513708510718	3
1	2703	257.714028072909	1
1	2724	260.3	3
1	2730	260.8	4
1	2735	261.106627198148	2
1	2740	261.41180313802	2
1	2744	261.614505220671	1
1	2752	262.014669848315	3
1	2757	262.317193515347	2
1	2763	262.720181517586	3
1	2768	263.028730497033	2
1	2787	266.3	3
1	2792	266.7	3
1	2799	267.201851143026	4
1	2804	267.507576028233	2
1	2813	268.0084114917	4
1	2818	268.315742917014	2
1	2838	272.2	2
1	2844	272.7	4
1	2850	273.100193187515	3
1	2856	273.505881767475	3
1	2861	273.806552087983	2
1	2868	274.111209186741	2
1	2888	278.2	2
1	2892	278.5	2
1	2898	278.811507746074	2
1	2903	279.019360828324	1
1	2911	279.531571108641	4
1	2932	282.3	3
1	2935	282.5	1
1	2940	282.808650896362	2
1	2945	283.117400512875	2
1	2950	283.418131745988	2
1	2957	283.831619197432	3
1	2980	286.5	5
1	2985	286.9	3
1	2992	287.40466880022	4
1	2997	287.713707592847	2
1	3018	290.3	3
1	3025	290.9	5
1	3030	291.205925118636	2
1	3035	291.514312912723	2
1	3040	291.718828411594	1
1	3044	291.927991467111	1
1	3050	292.133394512727	1
1	3054	292.342490867988	1
1	3073	296.1	1
1	3077	296.4	2
1	3083	296.706337910552	2
1	3087	296.911140692382	1
1	3095	297.516136534087	5
1	3099	297.719469377141	1
1	3107	298.126755233857	3
1	3126	302.1	1
1	3130	302.4	2
1	3135	302.70673147279	2
1	3142	303.215248191572	4
1	3146	303.415802784786	1
1	3167	306.3	3
1	3171	306.6	2
1	3175	306.802336661377	1
1	3180	307.105528899297	2
1	3201	310.3	3
1	3206	310.7	3
1	3212	311.104771409854	3
1	3217	311.406946402042	2
1	3223	311.710475208487	2
1	3243	314.2	2
1	3246	314.4	1
1	3252	314.711644983402	2
1	3256	314.913090438792	1
1	3262	315.322971085568	3
1	3268	315.534153774225	1
1	3289	318.3	3
1	3294	318.7	3
1	3300	319.107153295825	3
1	3306	319.507376600088	3
1	3311	319.810479878469	2
1	3318	320.017652905766	1
1	3324	320.327189966854	2
1	3346	324.4	4
1	3350	324.7	2
1	3356	325.108666082711	3
1	3361	325.324410447416	1
1	3369	325.926413161473	5
1	3391	328.4	4
1	3394	328.6	1
1	3400	329.000987434028	3
1	3404	329.201460616317	1
1	3409	329.507973659647	2
1	3430	332.3	3
1	3435	332.7	3
1	3441	333.104063043009	3
1	3448	333.612059195634	4
1	3456	334.019102545912	3
1	3463	334.519448258129	4
1	3469	334.92530185026	3
1	3474	335.233004237551	2
1	3494	338.2	2
1	3500	338.603137553813	3
1	3504	338.805708246795	1
1	3508	339.007972862932	1
1	3513	339.314295896088	2
1	3534	342.3	3
1	3537	342.5	1
1	3543	342.905126617024	3
1	3550	343.409588079323	4
1	3557	343.915740728653	4
1	3578	346.3	3
1	3583	346.7	3
1	3588	347.003002483374	2
1	3593	347.312682609909	2
1	3598	347.614112668236	2
1	3602	347.817708271276	1
1	3609	348.126721355635	2
1	3613	348.332261677169	1
1	3618	348.637677270938	2
1	3623	348.941790815014	2
1	3630	349.451538218662	4
1	3651	352.3	3
1	3655	352.6	2
1	3661	353.009928265674	3
1	3667	353.415388973731	3
1	3673	353.821980973382	3
1	3682	354.327245232684	4
1	3686	354.535336005089	1
1	3706	358.2	2
1	3710	358.5	2
1	3715	358.800262185675	2
1	3721	359.205601529008	3
1	3727	359.607205480827	3
1	3736	360.112978275293	4
1	3758	364.4	4
1	3762	364.7	2
1	3767	365.003665430971	2
1	3771	365.21092681534	1
1	3775	365.419550277868	1
1	3779	365.62760263626	1
1	3788	366.134529413464	4
1	3792	366.33933004273	1
1	3797	366.551115207868	1
1	3801	366.753001575831	1
1	3805	366.961415676451	1
1	3809	367.165834719233	1
1	3814	367.471389994604	2
1	3836	370.4	4
1	3840	370.7	2
1	3846	371.102039062259	3
1	3852	371.504797521256	3
1	3857	371.80727485027	2
1	3865	372.209528755029	3
1	3870	372.512150485818	2
1	3874	372.718618024959	1
1	3894	376.2	2
1	3898	376.5	2
1	3906	377.100569294339	5
1	3913	377.609367825386	4
1	3932	380.1	1
1	3940	380.8	6
1	3946	381.207986042439	3
1	3952	381.513988069493	2
1	3956	381.718878142502	1
1	3976	384.2	2
1	3979	384.4	1
1	3985	384.808438404316	3
1	3990	385.110095300718	2
1	4011	388.3	3
1	4014	388.5	1
1	4018	388.705111414741	1
1	4022	388.91414743341	1
1	4027	389.219556951494	2
1	4032	389.521752192384	2
1	4036	389.731346535555	1
1	4043	390.038727845235	2
1	4065	394.4	4
1	4071	394.9	4
1	4077	395.307093872528	3
1	4083	395.708418168867	3
1	4091	396.113068183689	3
1	4097	396.516789060426	3
1	4103	396.926264549889	3
1	4109	397.327093104505	3
1	4114	397.629307431861	2
1	4119	397.934364694068	2
1	4127	398.337035414224	3
1	4147	402.2	2
1	4151	402.5	2
1	4155	402.703612747122	1
1	4160	403.004702934752	2
1	4181	406.3	3
1	4185	406.6	2
1	4190	406.903878277889	2
1	4194	407.110846282846	1
1	4199	407.415431514628	2
1	4203	407.623093628425	1
1	4207	407.830450949601	1
1	4214	408.133875490759	2
1	4232	412.2	2
1	4236	412.5	2
1	4241	412.808177683888	2
1	4245	413.016417782543	1
1	4249	413.222980941137	1
1	4253	413.429245902724	1
1	4258	413.729358705897	2
1	4279	416.3	3
1	4283	416.6	2
1	4288	416.900183326387	2
1	4293	417.206983517849	2
1	4297	417.407650767781	1
1	4316	420.1	1
1	4323	420.7	5
1	4328	421.003610174707	2
1	4335	421.413475007167	3
1	4356	424.3	3
1	4362	424.8	4
1	4367	425.107469384944	2
1	4371	425.315831185	1
1	4375	425.520355233196	1
1	4397	428.4	4
1	4402	428.8	3
1	4408	429.206709320126	3
1	4414	429.611449359394	3
1	4422	430.012311924837	3
1	4428	430.420343558184	3
1	4433	430.730258063872	2
1	4454	434.3	3
1	4459	434.7	3
1	4466	435.200370610433	4
1	4472	435.606907507988	3
1	4477	435.914646251428	2
1	4483	436.115020530827	1
1	4487	436.316276944594	1
1	4509	440.4	4
1	4513	440.7	2
1	4520	441.206088130888	4
1	4525	441.511474403733	2
1	4530	441.812536516586	2
1	4540	442.412566696201	5
1	4560	446.2	2
1	4564	446.5	2
1	4571	447.00890166304	4
1	4575	447.216861332437	1
1	4580	447.521967325504	2
1	4584	447.731120068684	1
1	4605	450.3	3
1	4609	450.6	2
1	4616	451.106153042318	4
1	4620	451.308029359014	1
1	4640	454.2	2
1	4643	454.4	1
1	4648	454.705550593524	2
1	4652	454.915450145289	1
1	4657	455.224062041701	2
1	4664	455.731173266235	4
1	4673	456.238626481352	4
1	4679	456.645944485495	3
1	4700	460.3	3
1	4704	460.6	2
1	4709	460.905737319057	2
1	4714	461.208235825837	2
1	4719	461.514626415578	2
1	4725	461.916360717256	3
1	4747	464.4	4
1	4750	464.6	1
1	4755	464.908745102658	2
1	4759	465.110213026352	1
1	4766	465.618690926156	4
1	4771	465.921333900937	2
1	4778	466.227811139484	2
1	4785	466.736002031226	4
1	4806	470.3	3
1	4810	470.6	2
1	4816	471.009916540039	3
1	4823	471.512582927056	4
1	4832	472.020579538986	4
1	4839	472.525916072465	4
1	4858	476.1	1
1	4865	476.7	5
1	4869	476.901242800403	1
1	4875	477.304908366831	3
1	4882	477.814118545447	4
1	4892	478.418454468748	5
1	4897	478.718902834637	2
1	4903	479.124025761612	3
1	4925	482.4	4
1	4931	482.9	4
1	4937	483.30305571614	3
1	4943	483.71022450277	3
1	4965	486.4	4
1	4970	486.8	3
1	4975	487.101439428462	2
1	4982	487.606659940969	4
1	5003	490.3	3
1	5008	490.7	3
1	5012	490.908868419243	1
1	5016	491.114453584716	1
1	5020	491.31960575132	1
1	5040	494.2	2
1	5044	494.5	2
1	5048	494.70628309041	1
1	5052	494.911262923483	1
1	5057	495.21416389204	2
1	5063	495.617498284682	3
1	5068	495.917591770462	2
1	5076	496.326538736548	3
1	5098	500.4	4
1	5102	500.7	2
1	5107	501.005172675983	2
1	5111	501.213561054496	1
1	5116	501.42795307334	1
1	5120	501.632217821217	1
1	5129	502.133837200211	4
1	5134	502.436311160564	2
1	5138	502.645800930723	1
1	5143	502.94951386837	2
1	5161	506.1	1
1	5167	506.6	4
1	5174	507.105743442224	4
1	5180	507.514186741737	3
1	5186	507.917975210667	3
