file 15481 1369149732                                           
version 2
run Join-4-20130520-16:32:10-32715
attr configname Join
attr datetime 20130520-16:32:10
attr experiment "\"Join\""
attr inifile omnetpp.ini
attr iterationvars $0=32
attr iterationvars2 "$0=32, $repetition=4"
attr measurement $0=32
attr network Network
attr processid 32715
attr repetition 4
attr replication #4
attr resultdir results
attr runnumber 4
attr seedset 4
vector 4  Network.dyn_peer[0]  lookupHopsSig:vector  ETV
4	434 15047 298 5347 20.1 515.821357521042 666 0 7 1548 4436
