file 20560 1369149732                                           
version 2
run Join-31-20130520-16:32:16-32715
attr configname Join
attr datetime 20130520-16:32:16
attr experiment "\"Join\""
attr inifile omnetpp.ini
attr iterationvars $0=256
attr iterationvars2 "$0=256, $repetition=1"
attr measurement $0=256
attr network Network
attr processid 32715
attr repetition 1
attr replication #1
attr resultdir results
attr runnumber 31
attr seedset 31
vector 31  Network.dyn_peer[0]  lookupHopsSig:vector  ETV
31	441 20119 939 10902 21.009238555079 930.810463707852 822 1 21 5420 45054
