version 2
run Join-6-20130520-16:32:10-32715
attr configname Join
attr datetime 20130520-16:32:10
attr experiment "\"Join\""
attr inifile omnetpp.ini
attr iterationvars $0=32
attr iterationvars2 "$0=32, $repetition=6"
attr measurement $0=32
attr network Network
attr processid 32715
attr repetition 6
attr replication #6
attr resultdir results
attr runnumber 6
attr seedset 6

vector 6  Network.dyn_peer[0]  lookupHopsSig:vector  ETV
6	290	20.230517726776	3
6	295	20.53670183189	2
6	300	20.840862828314	2
6	307	21.248137798855	3
6	311	21.452179365366	1
6	331	24.2	2
6	336	24.6	3
6	341	24.905518548351	2
6	347	25.312350846649	3
6	353	25.717849610647	3
6	362	26.21924232673	4
6	368	26.623881433188	3
6	387	30.1	1
6	392	30.5	3
6	397	30.801926654791	2
6	401	31.004778150417	1
6	405	31.214026088115	1
6	409	31.414034612917	1
6	414	31.718085637486	2
6	418	31.922431755859	1
6	426	32.229788036498	2
6	448	36.4	4
6	455	37	5
6	461	37.307364246001	2
6	469	37.816170470295	4
6	489	40.2	2
6	493	40.5	2
6	499	40.900662204809	3
6	504	41.205480668679	2
6	511	41.614373186645	3
6	516	41.818262978097	1
6	537	44.3	3
6	540	44.5	1
6	547	45.006038665547	4
6	552	45.308602774393	2
6	556	45.514474911301	1
6	579	48.5	5
6	583	48.8	2
6	590	49.308799674005	4
6	595	49.610844906572	2
6	606	50.225659903626	5
6	613	50.626979485861	3
6	634	54.3	3
6	639	54.7	3
6	645	55.104357887418	3
6	650	55.409942553602	2
6	660	56.016561467132	5
6	664	56.222028545442	1
6	684	60.2	2
6	687	60.4	1
6	692	60.707019921399	2
6	696	60.909783425952	1
6	700	61.117751475781	1
6	704	61.319008059204	1
6	708	61.520235479406	1
6	714	61.737045624131	1
6	722	62.146116329536	3
6	742	66.2	2
6	747	66.6	3
6	752	66.907832566702	2
6	756	67.116510180541	1
6	776	70.2	2
6	781	70.6	3
6	785	70.805612751326	1
6	789	71.005869315302	1
6	794	71.312550692598	2
6	820	74.8	8
6	824	75.1	2
6	829	75.405644305043	2
6	834	75.713148609757	2
6	841	76.022243564916	2
6	845	76.227214074623	1
6	851	76.633981041073	3
6	857	77.034408366082	3
6	877	80.2	2
6	881	80.5	2
6	887	80.909922818443	3
6	892	81.215423230299	2
6	896	81.417954304789	1
6	900	81.623622272457	1
6	904	81.832472111801	1
6	910	82.033601295139	1
6	931	86.3	3
6	936	86.7	3
6	941	87.007016348328	2
6	947	87.411871200992	3
6	954	87.915390226048	4
6	961	88.218404447043	2
6	982	92.3	3
6	986	92.6	2
6	991	92.907900774022	2
6	996	93.209144130788	2
6	1000	93.418229178284	1
6	1004	93.618345236725	1
6	1009	93.919034784648	2
6	1030	96.3	3
6	1034	96.6	2
6	1040	96.810660156876	1
6	1045	97.110968780823	2
6	1068	100.5	5
6	1072	100.8	2
6	1077	101.102458148454	2
6	1083	101.510968650462	3
6	1087	101.716206372376	1
6	1091	101.916642589078	1
6	1097	102.119192446011	1
6	1101	102.32426095409	1
6	1108	102.832780038762	4
6	1116	103.434853688884	5
6	1137	106.3	3
6	1142	106.7	3
6	1148	107.109730724995	3
6	1154	107.517572365114	3
6	1160	107.921119840438	3
6	1167	108.225407052232	2
6	1173	108.627653508527	3
6	1178	108.933955730035	2
6	1182	109.143742868092	1
6	1207	112.2	2
6	1212	112.6	3
6	1219	113.109686660787	4
6	1224	113.41459270514	2
6	1230	113.821643744545	3
6	1237	114.124207572174	2
6	1244	114.624401430255	4
6	1249	114.926770145509	2
6	1271	118.4	4
6	1274	118.6	1
6	1280	119.001294357094	3
6	1286	119.406791442592	3
6	1290	119.610454053917	1
6	1298	120.014267912179	3
6	1304	120.322708717302	2
6	1309	120.630373531441	2
6	1329	124.2	2
6	1332	124.4	1
6	1337	124.708812224082	2
6	1343	125.111372860182	3
6	1350	125.613309544742	4
6	1359	126.115971525193	4
6	1382	130.5	5
6	1385	130.7	1
6	1391	131.106931236961	3
6	1396	131.409407356436	2
6	1400	131.616430042529	1
6	1420	134.2	2
6	1425	134.6	3
6	1430	134.902381306684	2
6	1436	135.308951062273	3
6	1442	135.71777930979	3
6	1450	136.126917126286	3
6	1456	136.536561456434	3
6	1462	136.938862155978	3
6	1468	137.34542243424	3
6	1472	137.545996765123	1
6	1490	140	0
6	1495	140.4	3
6	1499	140.608644364851	1
6	1504	140.908723575002	2
6	1511	141.317991928561	3
6	1518	141.722974896545	3
6	1527	142.037954273855	2
6	1533	142.44623861795	3
6	1553	146.2	2
6	1557	146.5	2
6	1565	147.006307826104	4
6	1572	147.515360412368	4
6	1577	147.822296920906	2
6	1586	148.331449604796	4
6	1591	148.63389551372	2
6	1612	152.3	3
6	1616	152.6	2
6	1621	152.906702896952	2
6	1625	153.107926779325	1
6	1630	153.41063241337	2
6	1635	153.720168152973	2
6	1642	154.020311217524	2
6	1648	154.424526030395	3
6	1653	154.725497334342	2
6	1658	155.029992086918	2
6	1662	155.234180463974	1
6	1682	158.2	2
6	1685	158.4	1
6	1691	158.807446964608	3
6	1696	159.114897519234	2
6	1701	159.423416477337	2
6	1709	159.833520832326	3
6	1717	160.236125843516	3
6	1736	164.1	1
6	1742	164.6	4
6	1748	164.901396633071	2
6	1752	165.107815351394	1
6	1756	165.317360827097	1
6	1777	168.3	3
6	1783	168.8	4
6	1790	169.30578153463	4
6	1794	169.510087888959	1
6	1815	172.3	3
6	1820	172.7	3
6	1826	173.106468293315	3
6	1831	173.414400783877	2
6	1836	173.716197180237	2
6	1856	176.2	2
6	1859	176.4	1
6	1865	176.713951458422	2
6	1871	177.123083783815	3
6	1876	177.428785455236	2
6	1881	177.738025630533	2
6	1888	178.038878306718	2
6	1893	178.343667894796	2
6	1897	178.552777416762	1
6	1920	182.5	5
6	1923	182.7	1
6	1930	183.205053922869	4
6	1938	183.805458845728	5
6	1945	184.106514915883	2
6	1965	188.2	2
6	1969	188.400417775854	1
6	1973	188.604782405304	1
6	1979	189.009298036812	3
6	1985	189.416215371593	3
6	2005	192.2	2
6	2008	192.4	1
6	2013	192.701899591174	2
6	2017	192.910187880496	1
6	2024	193.418621986372	4
6	2028	193.624157253849	1
6	2032	193.825229717072	1
6	2039	194.127474538807	2
6	2059	198.2	2
6	2062	198.4	1
6	2067	198.70464267217	2
6	2072	199.01367251447	2
6	2076	199.216868418339	1
6	2082	199.623146715879	3
6	2087	199.932237657615	2
6	2095	200.340180535597	3
6	2102	200.848036809373	4
6	2122	204.2	2
6	2125	204.4	1
6	2131	204.802440957678	3
6	2136	205.108559171049	2
6	2145	205.814032970398	6
6	2166	208.3	3
6	2171	208.7	3
6	2176	209.006622105897	2
6	2181	209.311191573037	2
6	2188	209.813781367795	4
6	2194	210.019460287097	1
6	2199	210.322228283845	2
6	2203	210.526531011073	1
6	2223	214.2	2
6	2226	214.4	1
6	2230	214.603055872479	1
6	2234	214.812394942054	1
6	2241	215.126534979608	2
6	2263	218.4	4
6	2266	218.6	1
6	2270	218.800658638051	1
6	2276	219.209759650202	3
6	2296	222.2	2
6	2301	222.6	3
6	2308	223.102342745801	4
6	2315	223.611825444332	4
6	2335	226.2	2
6	2338	226.4	1
6	2343	226.701571090158	2
6	2349	227.101906213005	3
6	2355	227.508254511469	3
6	2360	227.812379171593	2
6	2368	228.119982331404	2
6	2390	232.4	4
6	2396	232.9	4
6	2401	233.208988500924	2
6	2407	233.616537415287	3
6	2429	236.4	4
6	2433	236.7	2
6	2438	236.913823533593	1
6	2442	237.11645521694	1
6	2447	237.420383890358	2
6	2452	237.726751466145	2
6	2459	238.0340049227	2
6	2479	242.2	2
6	2484	242.6	3
6	2492	243.20737582019	5
6	2497	243.511253186314	2
6	2502	243.819635830275	2
6	2508	244.025980433584	1
6	2529	248.3	3
6	2535	248.8	4
6	2539	249.009454236109	1
6	2545	249.410740176301	3
6	2550	249.712408782443	2
6	2570	252.2	2
6	2575	252.6	3
6	2581	253.003555940911	3
6	2586	253.310361172125	2
6	2608	256.4	4
6	2612	256.7	2
6	2617	257.008639153828	2
6	2621	257.210291198265	1
6	2642	260.3	3
6	2646	260.6	2
6	2650	260.806407812577	1
6	2655	261.109026808644	2
6	2663	261.715015134071	5
6	2670	262.024606422604	2
6	2691	266.3	3
6	2694	266.5	1
6	2699	266.809970066393	2
6	2706	267.310075085299	4
6	2713	267.810599831697	4
6	2722	268.316152317393	4
6	2727	268.61852752166	2
6	2731	268.828426011322	1
6	2751	272.2	2
6	2756	272.6	3
6	2760	272.804436794372	1
6	2765	273.109274870924	2
6	2771	273.509902106084	3
6	2791	276.2	2
6	2796	276.6	3
6	2801	276.900458191495	2
6	2807	277.307842664009	3
6	2813	277.711793381923	3
6	2821	278.114581730987	3
6	2825	278.319017623292	1
6	2846	282.3	3
6	2849	282.5	1
6	2853	282.701525413789	1
6	2858	283.010085851754	2
6	2863	283.319934635731	2
6	2868	283.622389170977	2
6	2876	284.025005471431	3
6	2880	284.230391404344	1
6	2886	284.636477676487	3
6	2892	285.03884246111	3
6	2898	285.448018310243	3
6	2917	288.1	1
6	2921	288.4	2
6	2929	289.009107136453	5
6	2934	289.313079296228	2
6	2939	289.616638168577	2
6	2958	292.1	1
6	2961	292.3	1
6	2967	292.704506804929	3
6	2972	293.006335237237	2
6	2980	293.615558430714	5
6	3001	296.3	3
6	3005	296.6	2
6	3009	296.807612678066	1
6	3018	297.318066651384	4
6	3037	300.1	1
6	3042	300.5	3
6	3047	300.806052417603	2
6	3052	301.114645154514	2
6	3056	301.318950491694	1
6	3062	301.725292050996	3
6	3066	301.934287383287	1
6	3073	302.242535324483	2
6	3078	302.544263683769	2
6	3085	303.049234204717	4
6	3090	303.351813250173	2
6	3094	303.557637857606	1
6	3115	306.3	3
6	3119	306.6	2
6	3124	306.901770076474	2
6	3129	307.207953442734	2
6	3134	307.51179477585	2
6	3139	307.817548951073	2
6	3162	310.5	5
6	3167	310.9	3
6	3174	311.400005191636	4
6	3180	311.805746714101	3
6	3188	312.12020148078	2
6	3193	312.429109974277	2
6	3214	316.3	3
6	3218	316.6	2
6	3222	316.809982120555	1
6	3228	317.218428239004	3
6	3234	317.531122442286	2
6	3240	317.932534812935	3
6	3247	318.240050142516	2
6	3267	322.2	2
6	3272	322.6	3
6	3277	322.900251846653	2
6	3283	323.307760950566	3
6	3289	323.709538938344	3
6	3297	324.11534896792	3
6	3305	324.52836960694	3
6	3311	324.933523630957	3
6	3317	325.342958245394	3
6	3336	328.2	2
6	3342	328.7	4
6	3347	328.911661775289	1
6	3354	329.41975613954	4
6	3358	329.625486302182	1
6	3362	329.832610305773	1
6	3386	332.6	6
6	3389	332.8	1
6	3395	333.207637594195	3
6	3402	333.714538885715	4
6	3423	336.3	3
6	3429	336.8	4
6	3435	337.108758371455	2
6	3439	337.31546014146	1
6	3443	337.523481981927	1
6	3463	340.2	2
6	3472	340.806902197314	5
6	3479	341.315203647223	4
6	3486	341.817119049353	4
6	3493	342.126277949991	2
6	3497	342.330944249925	1
6	3501	342.538718667879	1
6	3524	346.5	5
6	3530	347	4
6	3536	347.402378298321	3
6	3542	347.807149555356	3
6	3548	348.012749845572	1
6	3554	348.421604747909	3
6	3561	348.928992145263	4
6	3565	349.129841698835	1
6	3571	349.538997562391	3
6	3590	352.1	1
6	3595	352.5	3
6	3599	352.704210619826	1
6	3603	352.909666314697	1
6	3610	353.41651969954	4
6	3630	356.2	2
6	3634	356.5	2
6	3639	356.8070097806	2
6	3644	357.1128398918	2
6	3648	357.314407554912	1
6	3655	357.718763073389	3
6	3663	358.119827068522	3
6	3667	358.326362597715	1
6	3671	358.526463447481	1
6	3693	362.4	4
6	3697	362.7	2
6	3702	363.00043894265	2
6	3707	363.303678259972	2
6	3713	363.708181653378	3
6	3720	364.017042321752	2
6	3727	364.522885046103	4
6	3731	364.732557269204	1
6	3737	365.134435587324	3
6	3741	365.335250998676	1
6	3760	368.1	1
6	3764	368.4	2
6	3770	368.801043373972	3
6	3775	369.110249856067	2
6	3782	369.612571143986	4
6	3787	369.914901707762	2
6	3809	372.4	4
6	3814	372.8	3
6	3821	373.300295691064	4
6	3833	374.103677752199	7
6	3839	374.509877849767	3
6	3845	374.912130204759	3
6	3851	375.319110229491	3
6	3858	375.820943791005	4
6	3880	378.4	4
6	3883	378.6	1
6	3890	379.10596108494	4
6	3896	379.507429203883	3
6	3902	379.915553987581	3
6	3911	380.425131720533	4
6	3917	380.8267692716	3
6	3922	381.130160547271	2
6	3942	384.2	2
6	3947	384.6	3
6	3951	384.800545468842	1
6	3957	385.208579493993	3
6	3962	385.512236344659	2
6	3967	385.724355804545	1
6	3988	388.3	3
6	3993	388.7	3
6	3998	389.004506921598	2
6	4004	389.405373866066	3
6	4009	389.70820758043	2
6	4016	390.016090877495	2
6	4021	390.317515772538	2
6	4030	391.020552943508	6
6	4036	391.429653781539	3
6	4041	391.739249644159	2
6	4046	391.947217019104	1
6	4068	394.4	4
6	4073	394.8	3
6	4078	395.10669955437	2
6	4084	395.508267908721	3
6	4088	395.70887084479	1
6	4095	396.016188861194	2
6	4100	396.317301400915	2
6	4105	396.627137684224	2
6	4116	397.531891114253	8
6	4135	400.1	1
6	4140	400.5	3
6	4144	400.704011496081	1
6	4151	401.210407669105	4
6	4170	404.1	1
6	4174	404.4	2
6	4179	404.705422641863	2
6	4184	405.013799247059	2
6	4191	405.520137865635	4
6	4195	405.727227739445	1
6	4216	408.3	3
6	4222	408.8	4
6	4227	409.108481618585	2
6	4234	409.520708288745	3
6	4258	412.6	6
6	4264	413.1	4
6	4270	413.504646740711	3
6	4275	413.805965248301	2
6	4281	414.015115503919	1
6	4285	414.224006666246	1
6	4305	418.2	2
6	4308	418.4	1
6	4314	418.803895009653	3
6	4318	419.007130021249	1
6	4324	419.411351180254	3
6	4330	419.813061393534	3
6	4353	422.5	5
6	4360	423.1	5
6	4366	423.500526113526	3
6	4372	423.900607006924	3
6	4382	424.408205521496	4
6	4388	424.810744277067	3
6	4408	428.2	2
6	4414	428.7	4
6	4418	428.908528619171	1
6	4423	429.216711452214	2
6	4429	429.529127547446	2
6	4435	429.930985302232	3
6	4443	430.335528494928	3
6	4464	434.3	3
6	4468	434.6	2
6	4474	435.002873284248	3
6	4480	435.407758435757	3
6	4484	435.614511485161	1
6	4492	436.020955480656	3
6	4496	436.226675792119	1
6	4518	440.4	4
6	4522	440.7	2
6	4528	441.008396629404	2
6	4534	441.410910728975	3
6	4540	441.813065302356	3
6	4548	442.213091539903	3
6	4552	442.413317805581	1
6	4557	442.716230586055	2
6	4563	443.122992442958	3
6	4567	443.332784479714	1
6	4587	446.2	2
6	4591	446.5	2
6	4596	446.705558209931	1
6	4602	447.106948908108	3
6	4622	450.2	2
6	4627	450.6	3
6	4632	450.813260278193	1
6	4637	451.115471871081	2
6	4644	451.616325215597	4
6	4650	451.926976442186	2
6	4658	452.334244926947	3
6	4662	452.534983821078	1
6	4686	456.6	6
6	4692	457.1	4
6	4698	457.507221986525	3
6	4704	457.909497592269	3
6	4711	458.21079961212	2
6	4718	458.712022598598	4
6	4723	459.019227530218	2
6	4733	459.828953623829	7
6	4756	462.5	5
6	4761	462.9	3
6	4768	463.406268054388	4
6	4772	463.612465322501	1
6	4780	464.02106125943	3
6	4786	464.422016241982	3
6	4791	464.725169012123	2
6	4795	464.925397967845	1
6	4815	468.2	2
6	4823	468.9	6
6	4829	469.304385655745	3
6	4836	469.809550683143	4
6	4843	470.116722456995	2
6	4849	470.526542672315	3
6	4854	470.835441895067	2
6	4861	471.344858163993	4
6	4868	471.850429702961	4
6	4876	472.257881649377	3
6	4898	476.5	5
6	4903	476.9	3
6	4910	477.403457591696	4
6	4916	477.808077257428	3
6	4924	478.216534942981	3
6	4931	478.723221777629	4
6	4950	482.1	1
6	4954	482.4	2
6	4960	482.807971116506	3
6	4965	483.017684022214	1
6	4987	486.4	4
6	4991	486.7	2
6	4996	487.003209397285	2
6	5000	487.204142073369	1
6	5009	487.9107497844	6
6	5017	488.317975487359	3
6	5022	488.623004293941	2
6	5029	489.126369034884	4
6	5052	492.5	5
6	5056	492.8	2
6	5062	493.200472898429	3
6	5068	493.605955392	3
6	5076	494.009115439163	3
6	5082	494.417398119423	3
6	5103	498.3	3
6	5107	498.6	2
6	5112	498.909266953871	2
6	5116	499.112592159528	1
6	5121	499.418661039273	2
6	5126	499.720000501367	2
6	5147	502.3	3
6	5151	502.6	2
6	5156	502.903972220232	2
6	5162	503.30607110571	3
6	5167	503.615493189037	2
6	5175	504.021236390505	3
6	5180	504.330139967201	2
6	5186	504.739723837671	3
6	5207	508.3	3
6	5212	508.7	3
6	5220	509.21060788314	4
6	5226	509.612143583494	3
6	5231	509.914854211223	2
6	5238	510.216816802136	2
6	5245	510.723687738011	4
6	5266	514.3	3
6	5269	514.5	1
6	5276	515.000467570873	4
6	5282	515.404474339247	3
6	5286	515.611013439331	1
6	5291	515.915270951344	2
6	5300	516.420650270774	4
6	5319	520.1	1
6	5322	520.3	1
6	5326	520.502576935521	1
6	5330	520.705861729529	1
6	5337	521.214960916653	4
6	5344	521.717370816006	4
6	5352	522.026296385626	2
6	5356	522.227492252373	1
6	5363	522.736236622879	4
6	5382	526.2	2
6	5386	526.5	2
6	5392	526.804790711944	2
6	5396	527.010511740041	1
6	5400	527.218282425086	1
6	5409	527.83139086074	5
6	5415	528.146431647473	2
