file 16821 1369149732                                           
version 2
run Join-17-20130520-16:32:12-32715
attr configname Join
attr datetime 20130520-16:32:12
attr experiment "\"Join\""
attr inifile omnetpp.ini
attr iterationvars $0=64
attr iterationvars2 "$0=64, $repetition=7"
attr measurement $0=64
attr network Network
attr processid 32715
attr repetition 7
attr replication #7
attr resultdir results
attr runnumber 17
attr seedset 17
vector 17  Network.dyn_peer[0]  lookupHopsSig:vector  ETV
17	438 16383 379 6545 20.5 636.120676599451 693 0 9 2493 11167
