file 23615 1369060352                                           
version 2
run Join-54-20130520-16:32:30-32715
attr configname Join
attr datetime 20130520-16:32:30
attr experiment "\"Join\""
attr inifile omnetpp.ini
attr iterationvars $0=1024
attr iterationvars2 "$0=1024, $repetition=4"
attr measurement $0=1024
attr network Network
attr processid 32715
attr repetition 4
attr replication #4
attr resultdir results
attr runnumber 54
attr seedset 54

vector 54  Network.dyn_peer[0]  lookupHopsSig:vector  ETV
54	444 23171 3170 21583 20.008886224161 1584.142033061501 890 1 45 11977 210021
