version 2
run Join-31-20130520-16:32:16-32715
attr configname Join
attr datetime 20130520-16:32:16
attr experiment "\"Join\""
attr inifile omnetpp.ini
attr iterationvars $0=256
attr iterationvars2 "$0=256, $repetition=1"
attr measurement $0=256
attr network Network
attr processid 32715
attr repetition 1
attr replication #1
attr resultdir results
attr runnumber 31
attr seedset 31

vector 31  Network.dyn_peer[0]  lookupHopsSig:vector  ETV
31	939	21.009238555079	13
31	956	22.315978532018	12
31	965	23.020416647387	6
31	980	24.128280978338	10
31	990	24.930557576213	7
31	1013	28.8	8
31	1029	30.1	12
31	1041	31.107932395478	9
31	1058	32.409734321599	12
31	1073	33.714201943747	12
31	1083	34.318334177137	5
31	1098	35.620738491139	12
31	1111	36.525665857971	8
31	1116	36.832702556901	2
31	1132	38.036437282242	11
31	1152	42.2	2
31	1157	42.6	3
31	1165	43.200020144965	5
31	1178	44.108977427844	8
31	1191	45.213051061069	10
31	1204	46.118103943157	8
31	1209	46.421277124087	2
31	1217	47.025042333059	5
31	1233	48.233603612457	11
31	1259	52.8	8
31	1268	53.6	7
31	1273	53.903551373027	2
31	1281	54.309074654271	3
31	1293	55.316572187281	9
31	1308	56.418236123715	10
31	1315	56.91994651637	4
31	1325	57.728249654892	7
31	1334	58.235409553752	4
31	1344	59.03980056589	7
31	1369	62.7	7
31	1381	63.8	10
31	1393	64.605825743901	7
31	1407	65.810162595885	11
31	1413	66.013867051982	1
31	1422	66.718139956634	6
31	1439	68.024099615601	12
31	1453	69.229199268294	11
31	1466	70.130447309692	8
31	1477	71.035834169098	8
31	1483	71.437748036334	3
31	1509	74.8	8
31	1519	75.7	8
31	1528	76.208337790749	4
31	1544	77.608464627526	13
31	1553	78.109282472554	4
31	1563	78.918686442495	7
31	1571	79.519155918991	5
31	1577	79.924327901175	3
31	1595	81.325453952342	13
31	1616	84.3	3
31	1625	85.1	7
31	1641	86.307125555602	11
31	1656	87.610728149785	12
31	1665	88.113578879268	4
31	1675	88.913714900729	7
31	1682	89.416495164066	4
31	1689	89.920258803713	4
31	1699	90.526580258343	5
31	1708	91.232974970082	6
31	1712	91.442164435491	1
31	1722	92.04590360054	5
31	1743	96.4	4
31	1753	97.3	8
31	1768	98.409129325291	10
31	1776	99.013467318178	5
31	1785	99.715173548701	6
31	1793	100.122365836299	3
31	1800	100.631450600233	4
31	1805	100.940028108835	2
31	1813	101.546107297403	5
31	1831	102.955160293398	13
31	1838	103.455456710737	4
31	1845	103.956963253516	4
31	1855	104.561544224001	5
31	1883	109	10
31	1893	109.9	8
31	1904	110.609587431899	6
31	1912	111.217927397691	5
31	1929	112.525494082114	12
31	1936	113.03016779402	4
31	1950	114.036079404968	9
31	1962	115.043051367988	9
31	1990	119	10
31	1999	119.8	7
31	2008	120.303237339588	4
31	2014	120.709985211039	3
31	2023	121.414299315664	6
31	2028	121.718053531009	2
31	2036	122.119546320473	3
31	2041	122.422610627561	2
31	2062	126.5	5
31	2074	127.6	10
31	2087	128.506208728305	8
31	2099	129.515205430416	9
31	2110	130.223597104074	6
31	2120	131.028637857378	7
31	2130	131.836494572408	7
31	2143	132.745690657832	8
31	2148	133.048138890369	2
31	2157	133.7519219052	6
31	2170	134.562067152892	7
31	2192	138.4	4
31	2199	139	5
31	2208	139.707228250582	6
31	2219	140.413342994236	6
31	2231	141.416705393887	9
31	2242	142.125620067597	6
31	2250	142.733243474364	5
31	2271	146.6	6
31	2291	148.3	16
31	2302	149.208792453189	8
31	2321	150.715378695658	14
31	2332	151.619828069355	8
31	2345	152.522399744468	8
31	2357	153.524870257528	9
31	2370	154.428084706253	8
31	2388	158.2	2
31	2397	158.90772733327	6
31	2402	159.21472836992	2
31	2414	160.017012464569	7
31	2422	160.621647496618	5
31	2497	165.5	15
31	2516	166.2	6
31	2526	166.605842203239	3
31	2536	167.009321160451	3
31	2544	167.312576187005	2
31	2564	168.013962361906	6
31	2582	168.71717991407	6
31	2600	172.3	3
31	2604	172.6	2
31	2612	173.203201814836	5
31	2621	173.909195247101	6
31	2630	174.413110931892	4
31	2638	175.017055349786	5
31	2647	175.726642687768	6
31	2657	176.331652327662	5
31	2667	177.138436618123	7
31	2671	177.339772422683	1
31	2682	178.041921051111	6
31	2689	178.54433298292	4
31	2715	182.9	9
31	2723	183.6	6
31	2739	184.801612410207	11
31	2744	185.101946617126	2
31	2749	185.409251291345	2
31	2774	188.7	7
31	2783	189.5	7
31	2793	190.103819348628	5
31	2799	190.505789247285	3
31	2804	190.811029731777	2
31	2809	191.11449893274	2
31	2817	191.715967835848	5
31	2828	192.423996539103	6
31	2853	196.9	9
31	2863	197.8	8
31	2878	198.907933122934	10
31	2893	200.010855684654	10
31	2903	200.811776145904	7
31	2909	201.215829622426	3
31	2918	201.923673416459	6
31	2940	204.4	4
31	2955	205.8	13
31	2973	207.209609129885	13
31	2988	208.3190863407	10
31	2998	209.127909816074	7
31	3003	209.432263738462	2
31	3016	210.338348333332	8
31	3028	211.343869715662	9
31	3050	214.4	4
31	3056	214.9	4
31	3064	215.501692279204	5
31	3075	216.211109931528	6
31	3079	216.412856732686	1
31	3088	217.121068053366	6
31	3095	217.622643893241	4
31	3112	220.2	2
31	3117	220.6	3
31	3124	221.10126014041	4
31	3137	222.002609111058	8
31	3149	223.006401870007	9
31	3158	223.708004220869	6
31	3171	224.614288503337	8
31	3189	228.3	3
31	3194	228.7	3
31	3205	229.600200385204	8
31	3214	230.110030219081	4
31	3219	230.413486998322	2
31	3224	230.719405542445	2
31	3232	231.326198246798	5
31	3239	231.834304573999	4
31	3248	232.341390131271	4
31	3254	232.749445475602	3
31	3265	233.649654959634	8
31	3288	236.5	5
31	3300	237.6	10
31	3305	237.90828553545	2
31	3315	238.513787549896	5
31	3327	239.516719158262	9
31	3339	240.321678081343	7
31	3347	240.929053721609	5
31	3352	241.230892497018	2
31	3357	241.535956235023	2
31	3369	242.340409148223	7
31	3396	246.9	9
31	3404	247.6	6
31	3413	248.100663122874	4
31	3417	248.305236263181	1
31	3426	249.008207274848	6
31	3437	249.912008898391	8
31	3456	252.1	1
31	3463	252.7	5
31	3471	253.309264884174	5
31	3484	254.02639733651	6
31	3492	254.631149607841	5
31	3507	255.935386357666	12
31	3516	256.347060195316	3
31	3524	256.947161216343	5
31	3534	257.75271534913	7
31	3560	260.8	8
31	3568	261.5	6
31	3579	262.203770000708	6
31	3589	263.0082976855	7
31	3597	263.614756308734	5
31	3612	264.723247074967	10
31	3617	265.029574465074	2
31	3682	269	10
31	3689	269.6	5
31	3700	270.302354448374	6
31	3711	271.208618115013	8
31	3718	271.713223116298	4
31	3725	272.019286352983	2
31	3734	272.724296033422	6
31	3754	276.5	5
31	3762	277.2	6
31	3775	278.102495558178	8
31	3787	279.107575148022	9
31	3803	280.315709464274	11
31	3816	281.424107493142	10
31	3831	282.533251605097	10
31	3837	282.936573069368	3
31	3859	286.6	6
31	3863	286.9	2
31	3870	287.401847023779	4
31	3880	288.006558557517	5
31	3903	292.5	5
31	3909	293	4
31	3918	293.70440657492	6
31	3926	294.111333803219	3
31	3930	294.316002405896	1
31	3954	298.6	6
31	3963	299.4	7
31	3975	300.204305681884	7
31	3981	300.612873969708	3
31	4003	304.4	4
31	4011	305.1	6
31	4034	307.007901033991	18
31	4042	307.613753211518	5
31	4060	309.014302211127	13
31	4076	310.218106042633	11
31	4106	315.2	12
31	4120	316.3	10
31	4130	317.102324635123	7
31	4139	317.810032840664	6
31	4153	318.81974364268	9
31	4165	319.828976124896	9
31	4178	320.73373737857	8
31	4190	321.741092171522	9
31	4204	322.742688912059	9
31	4214	323.551543612786	7
31	4244	327.2	12
31	4250	327.7	4
31	4264	328.705072956918	9
31	4271	329.211148712133	4
31	4278	329.715604808361	4
31	4285	330.0246234614	2
31	4298	331.125217866072	10
31	4302	331.327249499318	1
31	4307	331.635890878467	2
31	4319	332.442784687006	7
31	4330	333.350184141674	8
31	4343	334.250752071027	8
31	4363	338.2	2
31	4371	338.9	6
31	4381	339.709688755348	7
31	4390	340.217793632764	4
31	4396	340.618109410449	3
31	4400	340.82541907489	1
31	4410	341.633435936804	7
31	4415	341.937865341565	2
31	4428	342.845268922809	8
31	4454	346.8	8
31	4462	347.5	6
31	4473	348.20257901923	6
31	4482	348.907639766879	6
31	4497	350.017339858022	10
31	4504	350.522496059562	4
31	4516	351.532316878418	9
31	4541	354.7	7
31	4551	355.6	8
31	4566	356.700249421549	10
31	4571	357.004777328343	2
31	4579	357.610389102307	5
31	4590	358.319971175117	6
31	4601	359.226186146349	8
31	4607	359.632753531273	3
31	4636	363.1	11
31	4651	364.3	11
31	4664	365.406613196267	10
31	4674	366.011228294032	5
31	4686	367.014136859061	9
31	4696	367.817999109315	7
31	4706	368.426562124224	5
31	4737	373.3	13
31	4748	374.1	7
31	4762	375.308651559387	11
31	4776	376.311198661554	9
31	4785	377.014994468296	6
31	4796	377.918113253042	8
31	4814	379.320872700216	13
31	4821	379.73818228039	3
31	4839	381.145745714465	13
31	4846	381.651975665809	4
31	4869	384.5	5
31	4873	384.8	2
31	4885	385.802157944478	9
31	4893	386.202299419774	3
31	4903	387.006881377512	7
31	4909	387.412503579809	3
31	4923	388.419739879591	9
31	4951	393	10
31	4956	393.4	3
31	4971	394.501142171863	10
31	4985	395.709745325953	11
31	4996	396.413396126324	6
31	5004	397.016421672677	5
31	5013	397.71833269896	6
31	5022	398.220878258973	4
31	5037	399.530490315741	12
31	5050	400.436909814079	8
31	5074	404.6	6
31	5084	405.5	8
31	5094	406.100662113432	5
31	5100	406.507792139604	3
31	5110	407.313953271285	7
31	5121	408.014335997088	6
31	5131	408.820650940048	7
31	5142	409.72846449715	8
31	5168	412.8	8
31	5180	413.9	10
31	5195	415.001653358573	10
31	5214	416.503340758096	14
31	5221	417.011097444325	4
31	5236	418.11896908522	10
31	5249	419.221467409605	10
31	5262	420.127760845975	8
31	5270	420.732729132965	5
31	5296	424.8	8
31	5308	425.9	10
31	5319	426.603577186281	6
31	5324	426.91196250972	2
31	5340	428.116163096967	11
31	5349	428.817497522957	6
31	5354	429.121787430646	2
31	5378	432.6	6
31	5385	433.2	5
31	5401	434.401632423703	11
31	5414	435.501733419761	10
31	5430	436.711113905269	11
31	5448	438.112812046327	13
31	5466	439.720955298018	15
31	5482	440.929301396092	11
31	5492	441.739210782922	7
31	5518	444.8	8
31	5526	445.5	6
31	5538	446.307798685277	7
31	5552	447.50977541763	11
31	5575	450.5	5
31	5581	451	4
31	5587	451.401439286642	3
31	5604	452.711012997254	12
31	5611	453.218573873778	4
31	5617	453.622273098441	3
31	5642	456.7	7
31	5653	457.7	9
31	5669	458.902098044904	11
31	5690	460.611002024102	16
31	5701	461.511165955308	8
31	5716	462.620327944135	10
31	5739	466.5	5
31	5746	467.1	5
31	5752	467.50137142827	3
31	5758	467.907692680679	3
31	5767	468.408694959579	4
31	5772	468.71850031432	2
31	5782	469.524682602216	7
31	5791	470.026672185915	4
31	5804	471.133740746026	10
31	5832	475	10
31	5841	475.8	7
31	5854	476.701662468693	8
31	5864	477.503320166176	7
31	5869	477.811236810521	2
31	5881	478.618000273948	7
31	5899	480.027013182829	13
31	5910	480.927130154634	8
31	5918	481.532803563868	5
31	5931	482.436919956078	8
31	5944	483.544035294019	10
31	6000	486.8	8
31	6007	487.4	5
31	6023	488.600434025328	11
31	6041	490.000842096372	13
31	6049	490.609965812526	5
31	6073	494.6	6
31	6093	496.3	16
31	6103	497.106924975728	7
31	6113	497.915303234226	7
31	6126	498.822245426183	8
31	6134	499.423758511674	5
31	6145	500.12942735391	6
31	6155	500.930963538009	7
31	6174	504.3	3
31	6179	504.7	3
31	6189	505.507953469296	7
31	6200	506.212540777306	6
31	6224	508.216765308262	19
31	6238	509.417123231453	11
31	6260	512.4	4
31	6263	512.6	1
31	6273	513.402116101973	7
31	6286	514.310717130764	8
31	6293	514.815252591783	4
31	6301	515.418601052811	5
31	6316	516.525924146206	10
31	6322	516.931975604063	3
31	6330	517.537993838822	5
31	6355	520.7	7
31	6363	521.4	6
31	6378	522.505924681038	10
31	6397	524.01249749432	14
31	6414	525.519705390384	14
31	6423	526.019787891692	4
31	6431	526.622074811683	5
31	6449	530.3	3
31	6463	531.6	12
31	6473	532.206809592875	5
31	6486	533.314429214044	10
31	6492	533.721527344089	3
31	6505	534.630063834682	8
31	6525	536.233985367811	15
31	6540	537.540886615137	12
31	6567	540.9	9
31	6574	541.5	5
31	6585	542.200201184947	6
31	6597	543.201122497082	9
31	6605	543.804332134275	5
31	6613	544.213809662226	3
31	6624	545.12196162726	8
31	6629	545.426464604527	2
31	6634	545.736261658539	2
31	6644	546.344497291611	5
31	6649	546.650760786735	2
31	6655	547.051444409293	3
31	6662	547.553799580432	4
31	6691	551.1	11
31	6699	551.8	6
31	6713	552.805414425318	9
31	6720	553.31159489917	4
31	6732	554.114018098503	7
31	6743	555.022308832256	8
31	6751	555.628751325374	5
31	6759	556.038543928856	3
31	6764	556.34068727326	2
31	6771	556.848744863407	4
31	6782	557.750695501701	8
31	6792	558.351358578878	5
31	6800	558.953525406941	5
31	6830	563.4	14
31	6839	564	5
31	6853	565.203139415208	11
31	6866	566.104073539231	8
31	6874	566.712790798136	5
31	6886	567.720935545275	9
31	6896	568.326474647207	5
31	6903	568.830757957053	4
31	6914	569.734012533192	8
31	6927	570.637993894653	8
31	6950	574.6	6
31	6957	575.2	5
31	6963	575.606733193029	3
31	6980	576.912041211914	12
31	6990	577.717085130374	7
31	6999	578.226056475293	4
31	7026	582.9	9
31	7035	583.7	7
31	7049	584.701236931844	9
31	7059	585.509098377583	7
31	7073	586.512333793469	9
31	7085	587.518642475468	9
31	7098	588.426231811563	8
31	7109	589.327875526516	8
31	7126	592.1	1
31	7130	592.4	2
31	7135	592.704905920843	2
31	7141	593.105664110576	3
31	7145	593.308880647189	1
31	7152	593.814996600871	4
31	7162	594.41707104743	5
31	7169	594.91715720498	4
31	7193	598.6	6
31	7200	599.2	5
31	7207	599.709260254339	4
31	7216	600.217395523229	4
31	7226	601.023816583986	7
31	7241	602.133706560391	10
31	7252	603.037575147019	8
31	7258	603.444158889157	3
31	7265	603.953393720681	4
31	7278	604.860009961665	8
31	7291	605.966932048868	10
31	7313	608.5	5
31	7324	609.5	9
31	7333	610.007503179511	4
31	7340	610.507985746822	4
31	7344	610.71396577538	1
31	7349	611.016499007355	2
31	7354	611.320835441454	2
31	7358	611.530132435055	1
31	7380	614.6	6
31	7387	615.2	5
31	7411	617.202794846415	19
31	7417	617.606724511471	3
31	7442	620.7	7
31	7451	621.5	7
31	7463	622.301438671848	7
31	7471	622.909033500437	5
31	7482	623.811033467251	8
31	7498	625.011609164512	11
31	7502	625.220611554091	1
31	7516	626.22426574721	9
31	7524	626.828976479358	5
31	7534	627.636807514928	7
31	7545	628.345150763902	6
31	7573	633	10
31	7580	633.6	5
31	7594	634.604077325798	9
31	7608	635.813278986722	11
31	7618	636.415956809878	5
31	7626	637.019354509777	5
31	7645	638.528209505312	14
31	7656	639.432290729461	8
31	7670	640.442258783923	9
31	7682	641.450595211924	9
31	7695	642.359332816204	8
31	7706	643.262798601131	8
31	7719	644.164688796566	8
31	7730	645.073419340133	8
31	7753	648.5	5
31	7758	648.9	3
31	7765	649.408655603975	4
31	7776	650.110361637168	6
31	7783	650.619112554183	4
31	7790	651.124688285146	4
31	7797	651.625109169598	4
31	7806	652.130721573776	4
31	7815	652.838188853864	6
31	7821	653.242677249723	3
31	7835	654.250816412294	9
31	7841	654.651588845975	3
31	7847	655.052553228419	3
31	7853	655.457948728741	3
31	7865	656.266324694395	7
31	7890	660.7	7
31	7901	661.7	9
31	7910	662.20880033012	4
31	7919	662.911981421769	6
31	7923	663.117821766232	1
31	7931	663.72255386293	5
31	7959	667	10
31	7966	667.6	5
31	7981	668.709315956241	10
31	7992	669.615199001267	8
31	8005	670.523415728421	8
31	8014	671.228631604798	6
31	8037	674.5	5
31	8044	675.1	5
31	8058	676.104556452126	9
31	8064	676.509855857905	3
31	8078	677.711647631844	11
31	8092	678.720716288461	9
31	8102	679.527837676304	7
31	8124	682.4	4
31	8136	683.5	10
31	8151	684.607409107235	10
31	8163	685.611203337399	9
31	8167	685.818640901922	1
31	8180	686.722170014305	8
31	8205	690.7	7
31	8213	691.4	6
31	8233	693.001955478414	15
31	8247	694.008175301583	9
31	8256	694.716419892395	6
31	8265	695.425579695198	6
31	8275	696.034137336806	5
31	8281	696.439176178778	3
31	8288	696.947533310263	4
31	8318	701.3	13
31	8322	701.6	2
31	8336	702.601988364986	9
31	8342	703.005016645425	3
31	8352	703.810441605093	7
31	8362	704.415790524487	5
31	8370	705.015907391137	5
31	8380	705.823561155953	7
31	8393	706.728711252548	8
31	8417	710.6	6
31	8421	710.9	2
31	8427	711.303554871142	3
31	8444	712.604312875032	12
31	8453	713.306072853543	6
31	8458	713.613865035122	2
31	8469	714.317522239644	6
31	8479	715.118760305827	7
31	8486	715.627780541083	4
31	8516	719.2	12
31	8531	720.4	11
31	8541	721.200894573235	7
31	8549	721.808274120464	5
31	8571	724.4	4
31	8577	724.9	4
31	8589	725.904492877752	9
31	8598	726.405759209878	4
31	8604	726.807298713609	3
31	8611	727.316208351117	4
31	8616	727.622325819488	2
31	8628	728.428880565864	7
31	8634	728.836713453483	3
31	8660	731.038971682922	21
31	8667	731.548132743013	4
31	8673	731.949165504152	3
31	8681	732.356920448384	3
31	8691	733.162706480939	7
31	8697	733.568859649195	3
31	8701	733.774439945473	1
31	8723	736.4	4
31	8728	736.8	3
31	8740	737.801131696423	9
31	8753	738.708883358884	8
31	8760	739.217010825508	4
31	8778	740.617802469449	13
31	8799	744.3	3
31	8813	745.6	12
31	8824	746.305840810406	6
31	8833	747.015255176894	6
31	8850	748.322439988319	12
31	8863	749.431101011178	10
31	8876	750.341097485418	8
31	8882	750.743822450104	3
31	8886	750.948191992681	1
31	8897	751.848979187871	8
31	8910	752.755725057039	8
31	8933	756.5	5
31	8939	757	4
31	8943	757.207448844064	1
31	8949	757.520357315499	2
31	8959	758.12274300419	5
31	8967	758.728215819843	5
31	8974	759.234286001765	4
31	9001	763.2	12
31	9014	764.2	9
31	9036	766.003393449366	17
31	9048	767.004995798898	9
31	9065	768.313877285466	12
31	9074	769.018520059791	6
31	9085	769.91987371594	8
31	9112	772.9	9
31	9119	773.5	5
31	9134	774.601296853988	10
31	9144	775.409121653271	7
31	9154	776.011783673917	5
31	9163	776.717246269842	6
31	9185	780.4	4
31	9196	781.4	9
31	9209	782.306198479577	8
31	9215	782.713021593687	3
31	9222	783.217232929211	4
31	9234	784.024942236958	7
31	9244	784.826610906336	7
31	9250	785.227267920484	3
31	9257	785.732802625929	4
31	9284	789.1	11
31	9289	789.5	3
31	9304	790.609010111107	10
31	9323	792.117400848047	14
31	9329	792.517886455705	3
31	9343	793.721106317509	11
31	9355	794.526580303958	7
31	9369	795.728840137477	11
31	9385	796.93124151504	11
31	9404	798.431310024348	14
31	9424	800.040613193316	15
31	9442	801.649899120949	15
31	9457	802.753352111995	10
31	9475	806.2	2
31	9482	806.8	5
31	9490	807.405996099901	5
31	9504	808.411365588556	9
31	9517	809.512886661176	10
31	9532	810.614602849277	10
31	9537	810.91898298122	2
31	9559	814.4	4
31	9572	815.6	11
31	9588	816.803141428111	11
31	9600	817.808824655581	9
31	9614	818.814716651215	9
31	9620	819.222198791442	3
31	9626	819.625604517248	3
31	9640	820.630972215759	9
31	9645	820.93821589722	2
31	9660	822.040682824511	10
31	9670	822.849512581053	7
31	9676	823.255652894522	3
31	9684	823.862786838856	5
31	9697	824.766806045543	8
31	9719	828.4	4
31	9726	829	5
31	9733	829.502577136573	4
31	9743	830.109293799979	5
31	9753	830.909411569597	7
31	9759	831.309765992437	3
31	9770	832.017155199507	6
31	9778	832.624332198623	5
31	9787	833.333168451999	6
31	9801	834.333980073396	9
31	9822	838.3	3
31	9836	839.6	12
31	9845	840.101018680783	4
31	9852	840.602001123926	4
31	9897	844.2	2
31	9904	844.5	2
31	9928	845.506845973592	9
31	9946	846.107915192026	5
31	9962	846.812845279952	6
31	9978	847.417391095913	5
31	9988	847.822815559471	3
31	10004	848.524867412708	6
31	10009	848.828155707734	2
31	10018	849.53120392205	6
31	10028	850.135233933343	5
31	10037	850.837866520473	6
31	10059	854.4	4
31	10066	855	5
31	10087	856.703852933263	16
31	10095	857.310082802336	5
31	10107	858.116893410332	7
31	10116	858.820475428531	6
31	10133	860.128815002856	12
31	10145	861.134457877241	9
31	10162	862.443456748793	12
31	10173	863.34593181817	8
31	10199	866.8	8
31	10210	867.8	9
31	10225	868.900697446116	10
31	10229	869.102261292866	1
31	10235	869.416954340372	2
31	10241	869.822282845937	3
31	10255	870.825027828733	9
31	10280	874.7	7
31	10287	875.3	5
31	10300	876.2074403188	8
31	10306	876.615371189938	3
31	10319	877.718917915333	10
31	10334	878.824074729723	10
31	10340	879.233194579449	3
31	10346	879.635593901597	3
31	10370	882.6	6
31	10378	883.3	6
31	10390	884.105726638275	7
31	10402	885.107815492101	9
31	10417	886.21636835008	10
31	10465	890.3	3
31	10487	891.8	14
31	10503	893.003974853118	11
31	10508	893.309086348111	2
31	10521	894.210250671889	8
31	10533	895.216059667681	9
31	10539	895.618431949595	3
31	10550	896.325453990486	6
31	10571	900.3	3
31	10578	900.9	5
31	10587	901.607421518668	6
31	10599	902.409706877473	7
31	10616	903.919512659146	14
31	10625	904.420792313197	4
31	10645	908.2	2
31	10650	908.6	3
31	10656	909.008360839623	3
31	10663	909.510375637041	4
31	10674	910.214788273192	6
31	10683	910.923689888053	6
31	10692	911.629208410299	6
31	10719	915.2	12
31	10724	915.6	3
31	10734	916.203954931751	5
31	10740	916.610559759339	3
31	10753	917.719073549258	10
31	10757	917.923655735517	1
31	10767	918.531800317223	5
31	10779	919.540471529852	9
31	10791	920.342959244901	7
31	10804	921.452380578427	10
31	10822	922.852970584393	13
31	10832	923.653892998022	7
31	10853	926.4	4
31	10870	928	15
31	10886	929.401833381499	13
31	10902	930.810463707852	13
