version 2
run Join-26-20130520-16:32:15-32715
attr configname Join
attr datetime 20130520-16:32:15
attr experiment "\"Join\""
attr inifile omnetpp.ini
attr iterationvars $0=128
attr iterationvars2 "$0=128, $repetition=6"
attr measurement $0=128
attr network Network
attr processid 32715
attr repetition 6
attr replication #6
attr resultdir results
attr runnumber 26
attr seedset 26

vector 26  Network.dyn_peer[0]  lookupHopsSig:vector  ETV
26	563	20.9	9
26	568	21.3	3
26	574	21.700060353553	3
26	583	22.20199852964	4
26	588	22.503000020259	2
26	595	23.007566063124	4
26	601	23.412722304167	3
26	611	24.012761124697	5
26	617	24.418271353634	3
26	624	24.924414316318	4
26	633	25.63089083896	6
26	641	26.038627268334	3
26	648	26.540334930787	4
26	675	30.2	2
26	689	31.5	12
26	700	32.203845010711	6
26	708	32.813308427505	5
26	718	33.616620683743	7
26	730	34.418526493947	7
26	754	38.6	6
26	761	39.2	5
26	767	39.601460095192	3
26	776	40.104836221758	4
26	784	40.710769740642	5
26	793	41.419593459792	6
26	805	42.219650073003	7
26	818	43.321257049434	10
26	826	43.93053498729	5
26	838	44.739248664754	7
26	895	48.6	6
26	909	49.2	5
26	916	49.708873638533	4
26	924	50.1089681725	3
26	933	50.812708495932	6
26	938	51.120897932993	2
26	943	51.428117713411	2
26	956	52.33472589384	8
26	963	52.835898198489	4
26	990	56.9	9
26	995	57.3	3
26	1006	58.002973013196	6
26	1020	59.209856653953	11
26	1024	59.417681548003	1
26	1035	60.118994816321	6
26	1045	60.928915748189	7
26	1090	64	0
26	1097	64.3	2
26	1107	64.809404800364	4
26	1115	65.416109854646	5
26	1127	66.217909501434	7
26	1150	70.5	5
26	1158	71.100556519569	5
26	1162	71.305616938208	1
26	1168	71.71026960058	3
26	1177	72.211036943449	4
26	1188	73.020329537233	7
26	1194	73.42491903755	3
26	1207	74.23993641235	7
26	1211	74.446222561274	1
26	1215	74.653555160185	1
26	1238	78.5	5
26	1242	78.8	2
26	1250	79.40340232576	5
26	1261	80.107903809938	6
26	1267	80.510152480252	3
26	1274	81.012979719956	4
26	1280	81.413176750734	3
26	1286	81.814544111662	3
26	1296	82.418042811029	5
26	1320	86.6	6
26	1328	87.3	6
26	1336	87.903170511778	5
26	1342	88.108275706795	1
26	1346	88.314749089376	1
26	1370	92.6	6
26	1375	93	3
26	1383	93.604726841824	5
26	1391	94.011915222925	3
26	1407	95.4191791973	13
26	1414	95.921926743566	4
26	1423	96.429903607651	4
26	1432	97.136009518411	6
26	1440	97.737168200407	5
26	1449	98.245830547809	4
26	1454	98.549904201686	2
26	1477	102.5	5
26	1487	103.4	8
26	1494	103.902260642044	4
26	1503	104.406998838765	4
26	1510	104.907244719044	4
26	1515	105.208982063998	2
26	1523	105.814964571714	5
26	1540	107.122794269865	12
26	1565	110.7	7
26	1572	111.3	5
26	1583	112.002239012946	6
26	1591	112.608601003526	5
26	1600	113.309136859652	6
26	1613	114.215669133913	8
26	1619	114.615935543229	3
26	1628	115.316653797119	6
26	1635	115.82111214891	4
26	1645	116.423470778497	5
26	1671	120.8	8
26	1674	121	1
26	1679	121.300628775428	2
26	1685	121.700916822003	3
26	1689	121.908671331032	1
26	1696	122.217467287419	2
26	1702	122.621774769945	3
26	1708	123.025038712332	3
26	1712	123.227037929724	1
26	1718	123.633156591708	3
26	1727	124.136786015942	4
26	1733	124.546619056894	3
26	1738	124.855544371795	2
26	1746	125.464944283758	5
26	1773	128.9	9
26	1777	129.2	2
26	1783	129.605900132199	3
26	1791	130.015094359481	3
26	1800	130.721335777203	6
26	1812	131.725834403373	9
26	1823	132.434652118861	6
26	1830	132.942520269184	4
26	1839	133.651273130667	6
26	1859	136.2	2
26	1864	136.6	3
26	1871	137.105282378897	4
26	1881	137.906757183486	7
26	1888	138.210501220283	2
26	1894	138.61871986979	3
26	1899	138.824501289579	1
26	1932	143.5	15
26	1941	144.1	5
26	1949	144.704815410277	5
26	1958	145.406656308382	6
26	1972	146.414724537349	9
26	1980	147.019435790123	5
26	2005	150.7	7
26	2010	151.1	3
26	2017	151.601870403336	4
26	2028	152.307291865739	6
26	2032	152.510253748643	1
26	2041	153.215216969345	6
26	2045	153.418838725795	1
26	2055	154.025172401912	5
26	2074	158.1	1
26	2078	158.4	2
26	2084	158.801313784471	3
26	2090	159.203235731582	3
26	2103	160.107766455107	8
26	2111	160.714938008724	5
26	2119	161.324824991064	5
26	2127	161.934400018642	5
26	2134	162.243521193084	2
26	2142	162.843619945316	5
26	2166	166.6	6
26	2171	167	3
26	2178	167.5081117309	4
26	2189	168.209953720131	6
26	2196	168.714407092429	4
26	2202	169.116770616684	3
26	2210	169.722014423078	5
26	2238	173	10
26	2247	173.8	7
26	2255	174.115531621057	2
26	2262	174.616605134926	4
26	2270	175.224345273723	5
26	2282	176.028354342915	7
26	2288	176.436459106884	3
26	2294	176.843234279816	3
26	2299	177.148159262013	2
26	2317	180.1	1
26	2322	180.5	3
26	2331	181.208734594136	6
26	2340	181.915556481747	6
26	2346	182.120067713343	1
26	2354	182.720638736028	5
26	2362	183.33034461942	5
26	2368	183.73747354593	3
26	2377	184.247456295353	4
26	2384	184.752992153628	4
26	2392	185.356965786185	5
26	2400	185.961488090487	5
26	2410	186.562299420485	5
26	2433	190.6	6
26	2441	191.3	6
26	2453	192.100800803692	7
26	2461	192.705507614011	5
26	2469	193.312435890039	5
26	2480	194.015467974276	6
26	2489	194.721777250201	6
26	2500	195.62772503328	8
26	2511	196.3347731427	6
26	2518	196.837103517918	4
26	2526	197.446262732728	5
26	2537	198.150773856076	6
26	2545	198.756997674218	5
26	2573	203.1	11
26	2578	203.5	3
26	2588	204.104539344783	5
26	2597	204.806210717742	6
26	2604	205.312717922904	4
26	2612	205.918112886239	5
26	2621	206.418315377652	4
26	2625	206.6244754595	1
26	2649	210.8	8
26	2656	211.4	5
26	2662	211.803023483301	3
26	2672	212.412572863352	5
26	2677	212.716175577683	2
26	2687	213.521815348971	7
26	2714	216.9	9
26	2720	217.4	4
26	2725	217.703665888509	2
26	2738	218.608018950893	8
26	2748	219.408604299568	7
26	2753	219.71679208751	2
26	2761	220.11898728435	3
26	2766	220.426641531605	2
26	2787	224.3	3
26	2790	224.5	1
26	2798	225.108087678698	5
26	2805	225.612166386984	4
26	2810	225.916609171074	2
26	2816	226.123764333463	1
26	2821	226.42416694183	2
26	2826	226.725220479465	2
26	2832	227.126721819416	3
26	2856	230.6	6
26	2862	231.1	4
26	2871	231.805940758695	6
26	2878	232.106796630723	2
26	2884	232.507735312182	3
26	2890	232.912724862908	3
26	2900	233.716173910264	7
26	2924	236.9	9
26	2930	237.4	4
26	2942	238.208800533791	7
26	2946	238.412373604397	1
26	2951	238.719780699526	2
26	2958	239.229161326325	4
26	2964	239.635376281212	3
26	2973	240.137859280023	4
26	2984	241.044529303295	8
26	3007	244.5	5
26	3015	245.2	6
26	3020	245.508395198623	2
26	3031	246.208426237711	6
26	3036	246.509884937812	2
26	3059	250.5	5
26	3067	251.2	6
26	3073	251.608501171334	3
26	3077	251.809660852953	1
26	3084	252.112948614581	2
26	3089	252.413381151986	2
26	3099	253.221611267955	7
26	3120	256.3	3
26	3126	256.8	4
26	3133	257.304416715847	4
26	3140	257.811948977471	4
26	3150	258.417012595429	5
26	3155	258.724488371856	2
26	3160	259.030144866854	2
26	3170	259.833041342713	7
26	3176	260.037521056022	1
26	3184	260.643712401889	5
26	3188	260.852299952158	1
26	3205	264	0
26	3210	264.4	3
26	3221	265.306809801317	8
26	3236	266.408314688545	10
26	3244	267.010362051829	5
26	3253	267.714671286944	6
26	3262	268.215762602275	4
26	3273	269.118577348729	8
26	3293	272.2	2
26	3300	272.8	5
26	3311	273.702241820637	8
26	3321	274.310422902772	5
26	3330	275.013969835751	6
26	3336	275.418532578987	3
26	3347	276.12672934208	6
26	3374	281.2	12
26	3377	281.4	1
26	3384	281.90038527277	4
26	3393	282.401411834423	4
26	3399	282.80737291673	3
26	3405	283.217084043792	3
26	3411	283.62205505904	3
26	3431	286.2	2
26	3439	286.9	6
26	3447	287.506527012777	5
26	3460	288.410859478448	8
26	3467	288.91828051423	4
26	3472	289.220298873079	2
26	3485	290.124282190096	8
26	3496	291.032494059302	8
26	3520	294.6	6
26	3525	295	3
26	3533	295.600218278607	5
26	3546	296.500476433706	8
26	3551	296.801446989974	2
26	3555	297.010874881573	1
26	3565	297.813465965176	7
26	3590	300.7	7
26	3599	301.5	7
26	3605	301.900851137859	3
26	3615	302.51034995818	5
26	3620	302.814615004802	2
26	3644	306.6	6
26	3649	307	3
26	3655	307.407801036548	3
26	3662	307.912742965656	4
26	3670	308.31423003191	3
26	3678	308.915496110207	5
26	3689	309.821796081674	8
26	3713	312.6	6
26	3717	312.9	2
26	3722	313.200276854441	2
26	3731	313.901796525195	6
26	3740	314.4068317993	4
26	3747	314.911848846533	4
26	3754	315.42182386912	4
26	3811	318.6	6
26	3826	319.4	7
26	3832	319.80088684	3
26	3840	320.207180814446	3
26	3844	320.413942430208	1
26	3849	320.71599469348	2
26	3858	321.417948477432	6
26	3863	321.726718775728	2
26	3874	322.43501005843	6
26	3883	323.137252658942	6
26	3890	323.644883828276	4
26	3902	324.454566797061	7
26	3921	328.1	1
26	3925	328.4	2
26	3934	329.106388908182	6
26	3940	329.508210434927	3
26	3945	329.812831499964	2
26	3953	330.213335925825	3
26	3957	330.422372286913	1
26	3964	330.926613673585	4
26	3991	334.9	9
26	4005	336	10
26	4009	336.20906578097	1
26	4016	336.717764961607	4
26	4022	337.121094642732	3
26	4028	337.521541134904	3
26	4034	337.924866050663	3
26	4045	338.63455113535	6
26	4052	339.143156599406	4
26	4058	339.544903897576	3
26	4067	340.046886468814	4
26	4073	340.448441920192	3
26	4077	340.653796680183	1
26	4084	341.160035786456	4
26	4111	345	10
26	4115	345.3	2
26	4120	345.604902747592	2
26	4130	346.213962248272	5
26	4137	346.72155506865	4
26	4144	347.230796619573	4
26	4152	347.83343179565	5
26	4161	348.334062284029	4
26	4167	348.743118330163	3
26	4189	352.4	4
26	4195	352.9	4
26	4200	353.207838303269	2
26	4207	353.717727377025	4
26	4215	354.123758220452	3
26	4221	354.527948031763	3
26	4227	354.934556058149	3
26	4237	355.735982368108	7
26	4244	356.044466726823	2
26	4248	356.247339375977	1
26	4275	360.9	9
26	4284	361.7	7
26	4293	362.206648131248	4
26	4300	362.714977061443	4
26	4308	363.316963749632	5
26	4333	366.7	7
26	4339	367.2	4
26	4345	367.605494071491	3
26	4354	368.111631101364	4
26	4360	368.51734630378	3
26	4367	369.02315426161	4
26	4373	369.424296340427	3
26	4383	370.031996787939	5
26	4390	370.536748821827	4
26	4399	371.244358799192	6
26	4412	372.145824326469	8
26	4439	376.9	9
26	4444	377.3	3
26	4450	377.707893249373	3
26	4458	378.109895072208	3
26	4464	378.515402695421	3
26	4475	379.424669182608	8
26	4480	379.725026857617	2
26	4492	380.534005082134	7
26	4498	380.935638106487	3
26	4506	381.539645651696	5
26	4515	382.041525170561	4
26	4521	382.450541502644	3
26	4544	386.7	7
26	4547	386.9	1
26	4555	387.509036642254	5
26	4566	388.214766969833	6
26	4571	388.523968327719	2
26	4579	389.129584465674	5
26	4587	389.734357009038	5
26	4595	390.136250232548	3
26	4601	390.546214859959	3
26	4610	391.247733029672	6
26	4630	394.4	4
26	4634	394.7	2
26	4642	395.303014932242	5
26	4653	396.004504973157	6
26	4660	396.512439715722	4
26	4669	397.212538974047	6
26	4678	397.920196305335	6
26	4686	398.323355096498	3
26	4692	398.725632694511	3
26	4698	399.130124271848	3
26	4705	399.637765018263	4
26	4713	400.040337974448	3
26	4734	404.3	3
26	4742	405	6
26	4752	405.802048698493	7
26	4761	406.307079028856	4
26	4769	406.91060311151	5
26	4776	407.415193542468	4
26	4782	407.821906932126	3
26	4794	408.621972290467	7
26	4802	409.224404724681	5
26	4811	409.930868236513	6
26	4822	410.638624791889	6
26	4831	411.345573365073	6
26	4857	415	10
26	4871	416.1	10
26	4880	416.808638688509	6
26	4888	417.409787224793	5
26	4899	418.118739283158	6
26	4919	422.2	2
26	4925	422.7	4
26	4932	423.208120800089	4
26	4941	423.909812265045	6
26	4952	424.619669995926	6
26	4957	424.925030493122	2
26	4977	428.2	2
26	4985	428.9	6
26	4992	429.409427490895	4
26	4999	429.914421688336	4
26	5005	430.122981246131	1
26	5016	431.031058085221	8
26	5025	431.735561817728	6
26	5036	432.442092017263	6
26	5059	436.5	5
26	5066	437.1	5
26	5073	437.601100296466	4
26	5082	438.110830517357	4
26	5091	438.816226013986	6
26	5097	439.220895660287	3
26	5105	439.82180103752	5
26	5115	440.429926886353	5
26	5122	440.935525525162	4
26	5129	441.436177471765	4
26	5156	444.9	9
26	5161	445.3	3
26	5167	445.701490557969	3
26	5175	446.110009205408	3
26	5183	446.718968637528	5
26	5195	447.728136861259	9
26	5199	447.933579415699	1
26	5210	448.636954122722	6
26	5218	449.246482248428	5
26	5224	449.655907283938	3
26	5229	449.963458118595	2
26	5236	450.271157151051	2
26	5242	450.676783532779	3
26	5247	450.977226737518	2
26	5252	451.193489118908	1
26	5274	454.5	5
26	5280	455	4
26	5287	455.506048416839	4
26	5293	455.907645412941	3
26	5300	456.209561044621	2
26	5310	457.016393549487	7
26	5329	460.1	1
26	5336	460.7	5
26	5343	461.205017303763	4
26	5351	461.806219607087	5
26	5366	462.908288262775	10
26	5374	463.516439296707	5
26	5380	463.921803822115	3
26	5392	464.72385432065	7
26	5414	468.4	4
26	5420	468.9	4
26	5429	469.60949663819	6
26	5438	470.109940327729	4
26	5461	474.5	5
26	5466	474.9	3
26	5482	476.109641279592	11
26	5490	476.712982466895	5
26	5497	477.217328482078	4
26	5518	480.3	3
26	5525	480.9	5
26	5532	481.408138024487	4
26	5537	481.714758129186	2
26	5548	482.423342360154	6
26	5555	482.926813769844	4
26	5564	483.628438837803	6
26	5575	484.236485646166	5
26	5595	488.2	2
26	5603	488.9	6
26	5611	489.503769655602	5
26	5615	489.70450141604	1
26	5624	490.209462516514	4
26	5629	490.514254928414	2
26	5633	490.723048238925	1
26	5641	491.324226283657	5
26	5647	491.732968325826	3
26	5655	492.136135581044	3
26	5661	492.543874505755	3
26	5697	496.3	3
26	5700	496.5	1
26	5708	497.107921688864	5
26	5716	497.708617004186	5
26	5727	498.413866601697	6
26	5731	498.617907491343	1
26	5743	499.626686242358	9
26	5757	500.63371590828	9
26	5776	504.1	1
26	5783	504.7	5
26	5788	505.004042788117	2
26	5796	505.612713344215	5
26	5818	508.4	4
26	5832	509.7	12
26	5839	510.002654812769	2
26	5845	510.406787347071	3
26	5853	511.008267606812	5
26	5859	511.41616118972	3
26	5870	512.116385254818	6
26	5876	512.519610121538	3
26	5894	516.2	2
26	5900	516.7	4
26	5909	517.407030376661	6
26	5914	517.712483192849	2
26	5923	518.21890216743	4
26	5930	518.721101697011	4
26	5937	519.229463550574	4
26	5959	522.7	7
26	5968	523.5	7
26	5974	523.905877116862	3
26	5981	524.215086625117	2
26	5993	525.218642827387	9
26	6014	528.3	3
26	6019	528.7	3
26	6025	529.102033331284	3
26	6041	530.306330870493	11
26	6046	530.616114802342	2
26	6056	531.416740596445	7
26	6060	531.626715876126	1
26	6071	532.332620889389	6
26	6098	536.9	9
26	6103	537.3	3
26	6115	538.103560724225	7
26	6125	538.906475531087	7
26	6133	539.507129971329	5
26	6156	542.5	5
26	6161	542.9	3
26	6170	543.603575238659	6
26	6174	543.804958491121	1
26	6182	544.210194153024	3
26	6189	544.719557857697	4
26	6195	545.12698768323	3
26	6199	545.327632816535	1
26	6215	546.534456596098	11
26	6219	546.743699368613	1
26	6229	547.548254846164	7
26	6254	550.7	7
26	6262	551.4	6
26	6268	551.807206064232	3
26	6280	552.607716089703	7
26	6286	553.009422022732	3
26	6314	557	10
26	6321	557.6	5
26	6330	558.105410075674	4
26	6337	558.613742588455	4
26	6342	558.915310256582	2
26	6349	559.419380166675	4
26	6354	559.719549959052	2
26	6379	562.7	7
26	6383	562.906756682211	1
26	6392	563.610203539795	6
26	6396	563.815083401646	1
26	6402	564.017455631006	1
26	6406	564.219462361934	1
26	6410	564.423528742662	1
26	6416	564.830596060014	3
26	6421	565.139265945341	2
26	6439	568.2	2
26	6448	569	7
26	6455	569.504267031131	4
26	6466	570.206086002478	6
26	6470	570.408988866216	1
26	6479	571.112342107995	6
26	6499	574.2	2
26	6507	574.9	6
26	6513	575.300532128307	3
26	6520	575.802268622379	4
26	6527	576.108032184723	2
26	6533	576.512734531182	3
26	6538	576.813215767873	2
26	6543	577.117262733072	2
26	6547	577.32330817442	1
26	6552	577.625928452784	2
26	6557	577.928715444377	2
26	6565	578.332420719803	3
26	6574	579.037052615374	6
26	6598	582.6	6
26	6605	583.2	5
26	6609	583.401879769547	1
26	6615	583.802645424308	3
26	6624	584.304975172206	4
26	6632	584.905976717457	5
26	6644	585.912342364584	9
26	6663	588.1	1
26	6669	588.6	4
26	6677	589.200393312268	5
26	6685	589.800406680167	5
26	6695	590.409024430501	5
26	6701	590.818708362078	3
26	6707	591.224285091733	3
26	6731	594.9	9
26	6736	595.3	3
26	6742	595.702828920942	3
26	6752	596.307387604431	5
26	6761	597.008807299797	6
26	6766	597.318208277578	2
26	6774	597.91914193224	5
26	6786	598.721777004535	7
26	6812	602.8	8
26	6818	603.3	4
26	6825	603.806676546498	4
26	6833	604.213935245706	3
26	6840	604.722969304744	4
26	6845	605.024453193139	2
26	6851	605.427024282125	3
26	6865	606.431049764481	9
26	6871	606.833649210835	3
26	6876	607.134852159766	2
26	6883	607.642961114041	4
26	6888	607.952577347775	2
26	6895	608.260470191262	2
26	6924	613.1	11
26	6931	613.7	5
26	6942	614.400155989145	6
26	6951	615.103434400564	6
26	6958	615.605610109985	4
26	6968	616.210877287109	5
26	6977	616.911769238482	6
26	6984	617.414459188494	4
26	7007	620.5	5
26	7014	621.1	5
26	7020	621.504703407578	3
26	7029	622.013760064411	4
26	7040	622.820215907828	7
26	7067	626.9	9
26	7071	627.2	2
26	7078	627.703391888749	4
26	7086	628.112291129582	3
26	7094	628.718293117572	5
26	7099	629.026380590296	2
26	7106	629.532825734736	4
26	7129	632.5	5
26	7133	632.8	2
26	7143	633.601578152147	7
26	7147	633.805364794132	1
26	7158	634.509565241596	6
26	7169	635.413242069951	8
26	7179	636.021523978901	5
26	7185	636.429722890588	3
26	7191	636.83477951381	3
26	7195	637.040793147898	1
26	7204	637.747125481551	6
26	7211	638.051304664949	2
26	7221	638.763299823092	6
26	7240	642.2	2
26	7246	642.7	4
26	7252	643.101671418573	3
26	7257	643.402565620951	2
26	7263	643.805484602097	3
26	7279	645.011002652348	11
26	7284	645.31346272864	2
26	7290	645.714339347689	3
26	7309	647.224080651169	14
26	7316	647.724763477483	4
26	7323	648.02911105376	2
26	7327	648.235472729539	1
26	7331	648.436737164515	1
26	7335	648.639641139549	1
26	7355	652.2	2
26	7360	652.6	3
26	7369	653.308351848321	6
26	7374	653.612686278705	2
26	7386	654.417394576434	7
26	7400	655.62624931674	11
26	7408	656.029634704268	3
26	7433	660.7	7
26	7436	660.9	1
26	7441	661.205456225494	2
26	7446	661.510293697471	2
26	7455	662.013649570025	4
26	7461	662.415791237589	3
26	7468	662.924910422842	4
26	7489	666.3	3
26	7492	666.5	1
26	7499	667.004392158195	4
26	7510	667.910149965795	8
26	7517	668.217404237972	2
26	7538	672.3	3
26	7551	673.5	11
26	7564	674.407910463642	8
26	7574	675.214610889057	7
26	7594	678.2	2
26	7602	678.9	6
26	7609	679.40842373731	4
26	7620	680.11647210878	6
26	7626	680.526198731164	3
26	7632	680.932750399053	3
26	7637	681.23876477967	2
26	7641	681.438833394455	1
26	7648	681.940143562948	4
26	7657	682.449907053929	4
26	7679	686.4	4
26	7684	686.8	3
26	7697	687.901868747049	10
26	7705	688.308424248285	3
26	7713	688.917114863721	5
26	7722	689.625524583949	6
26	7733	690.335341156552	6
26	7740	690.840329138502	4
26	7748	691.444087509604	5
26	7754	691.846527890919	3
26	7762	692.249765637141	3
26	7791	697.1	11
26	7805	698.2	10
26	7812	698.701227026591	4
26	7818	699.106705800464	3
26	7828	699.911993787408	7
26	7836	700.317168762125	3
26	7841	700.618743790038	2
26	7861	704.2	2
26	7870	705	7
26	7878	705.600943078668	5
26	7889	706.307137033049	6
26	7895	706.70945242918	3
26	7923	711	10
26	7932	711.8	7
26	7939	712.10264840224	2
26	7946	712.609732644801	4
26	7951	712.915702302098	2
26	7963	713.920533190458	9
26	7973	714.530288675005	5
26	7996	718.5	5
26	7999	718.7	1
26	8005	719.105059731916	3
26	8009	719.308475564719	1
26	8016	719.812760688637	4
26	8022	720.017211977501	1
26	8030	720.625200503598	5
26	8037	721.134885094521	4
26	8044	721.642592569658	4
26	8052	722.044944798544	3
26	8062	722.850374249585	7
26	8072	723.657469489564	7
26	8097	726.7	7
26	8104	727.3	5
26	8115	728.004478098794	6
26	8123	728.604797367248	5
26	8132	729.305966067816	6
26	8138	729.710270804952	3
26	8149	730.411586176793	6
26	8157	731.019816362902	5
26	8182	734.7	7
26	8190	735.4	6
26	8200	736.004830978733	5
26	8209	736.713726987074	6
26	8218	737.422702966645	6
26	8228	738.027558477984	5
26	8235	738.534731407176	4
26	8241	738.941678486823	3
26	8264	742.5	5
26	8270	743	4
26	8277	743.5057443158	4
26	8282	743.814773468351	2
26	8290	744.222646715081	3
26	8297	744.728229993878	4
26	8308	745.632200714401	8
26	8316	746.034884912383	3
26	8323	746.535500867375	4
26	8354	751.5	15
26	8363	752.1	5
26	8371	752.706012928131	5
26	8384	753.810645405036	10
26	8392	754.212294383408	3
26	8418	758.9	9
26	8430	760	10
26	8437	760.501846081973	4
26	8443	760.902022475863	3
26	8451	761.509103295723	5
