file 14393 1369060330                                           
version 2
run Join-1-20130520-16:32:09-32715
attr configname Join
attr datetime 20130520-16:32:09
attr experiment "\"Join\""
attr inifile omnetpp.ini
attr iterationvars $0=32
attr iterationvars2 "$0=32, $repetition=1"
attr measurement $0=32
attr network Network
attr processid 32715
attr repetition 1
attr replication #1
attr resultdir results
attr runnumber 1
attr seedset 1

vector 1  Network.dyn_peer[0]  lookupHopsSig:vector  ETV
1	434 13959 313 5186 22.3 507.917975210667 628 0 6 1517 4437
