file 24976 1369149732                                           
version 2
run Join-61-20130520-16:32:40-32715
attr configname Join
attr datetime 20130520-16:32:40
attr experiment "\"Join\""
attr inifile omnetpp.ini
attr iterationvars $0=2048
attr iterationvars2 "$0=2048, $repetition=1"
attr measurement $0=2048
attr network Network
attr processid 32715
attr repetition 1
attr replication #1
attr resultdir results
attr runnumber 61
attr seedset 61
vector 61  Network.dyn_peer[0]  lookupHopsSig:vector  ETV
61	444 24532 5915 31035 20.24809841046 2124.73729387049 922 2 89 17171 438489
