version 2
run Join-40-20130520-16:32:19-32715
attr configname Join
attr datetime 20130520-16:32:19
attr experiment "\"Join\""
attr inifile omnetpp.ini
attr iterationvars $0=512
attr iterationvars2 "$0=512, $repetition=0"
attr measurement $0=512
attr network Network
attr processid 32715
attr repetition 0
attr replication #0
attr resultdir results
attr runnumber 40
attr seedset 40

vector 40  Network.dyn_peer[0]  lookupHopsSig:vector  ETV
40	1663	20.007517177697	12
40	1679	21.411950469025	13
40	1693	22.412699418937	9
40	1702	23.117987922856	6
40	1707	23.42092653274	2
40	1743	27.8	18
40	1755	28.7	8
40	1766	29.60915806622	8
40	1776	30.210212667533	5
40	1802	34.8	8
40	1826	36.9	20
40	1835	37.606643912009	6
40	1865	40.01164494916	23
40	1879	41.219377526588	11
40	1899	42.826421419128	15
40	1917	44.226809087763	13
40	1928	45.128638626532	8
40	1948	46.732468741158	15
40	1962	47.934350503137	11
40	1973	48.637835547794	6
40	1992	50.139350681908	14
40	1999	50.639734220618	4
40	2012	51.744876291588	10
40	2022	52.351809445274	5
40	2037	53.655314674388	12
40	2048	54.356444876127	6
40	2055	54.859080921318	4
40	2116	60.5	25
40	2139	62.5	19
40	2149	63.301437746228	7
40	2168	64.808325318891	14
40	2185	66.115511565372	12
40	2190	66.418748642108	2
40	2211	68.126201387098	16
40	2234	70.026612751298	18
40	2258	74.8	8
40	2268	75.7	8
40	2279	76.405071395691	6
40	2289	77.214264610334	7
40	2298	77.921790542885	6
40	2315	79.231601405039	12
40	2327	80.032403379732	7
40	2336	80.73730496884	6
40	2345	81.44692568384	6
40	2367	83.254331647892	17
40	2373	83.661065689968	3
40	2407	87.8	18
40	2424	89.2	13
40	2436	90.005012504837	7
40	2450	91.212924631551	11
40	2479	93.715186374442	24
40	2510	96.219987460217	24
40	2523	97.329291364674	10
40	2553	99.932754134982	25
40	2560	100.233770509931	2
40	2594	105.7	17
40	2623	108.1	23
40	2635	109.107243496899	9
40	2651	110.315434253953	11
40	2660	111.015749756404	6
40	2681	114.3	3
40	2708	116.7	23
40	2731	118.609096301933	18
40	2739	119.21740380139	5
40	2748	119.918393851592	6
40	2801	122.7	7
40	2824	123.7	9
40	2842	124.304867202085	5
40	2858	125.011512498002	6
40	2906	127.111561986637	20
40	2927	128.814360639076	16
40	2956	131.319896188441	24
40	2981	133.42011635523	20
40	2996	134.529428592693	10
40	3002	134.932760415099	3
40	3059	139.1	11
40	3079	140.8	16
40	3092	141.902682804993	10
40	3108	143.109584108057	11
40	3133	145.213842485322	20
40	3146	146.117455882926	8
40	3170	148.123786671017	19
40	3202	153.7	17
40	3217	154.9	11
40	3232	156.007043231171	10
40	3242	156.81076257663	7
40	3253	157.716599735314	8
40	3278	160.7	7
40	3291	161.9	11
40	3303	162.707162969845	7
40	3314	163.611712503607	8
40	3325	164.317125358603	6
40	3337	165.325245644106	9
40	3352	166.430364923812	10
40	3364	167.432841674035	9
40	3382	168.838144747576	13
40	3407	172.7	7
40	3414	173.3	5
40	3426	174.101605150941	7
40	3435	174.803804473741	6
40	3454	176.311996136111	14
40	3467	177.413430529221	10
40	3472	177.714344554059	2
40	3476	177.920939798746	1
40	3489	178.824296772579	8
40	3506	180.126678199648	12
40	3534	185	10
40	3555	186.8	17
40	3567	187.804231324233	9
40	3586	189.311454726557	14
40	3599	190.221008875457	8
40	3617	191.824448792893	15
40	3626	192.327172500703	4
40	3640	193.535664596327	11
40	3660	196.2	2
40	3672	197.3	10
40	3691	198.800145427705	14
40	3702	199.704004032904	8
40	3712	200.308715482732	5
40	3752	206	20
40	3779	208.4	23
40	3800	210.108278956827	16
40	3812	211.111940423414	9
40	3830	212.519622375188	13
40	3845	213.821538172907	12
40	3856	214.524343954734	6
40	3866	215.3244071748	7
40	3879	216.23196117186	8
40	3897	217.838780937777	15
40	3925	221	10
40	3941	222.3	12
40	3954	223.400757515518	10
40	3975	225.101750196832	16
40	4004	227.608689352126	24
40	4021	228.916826168174	12
40	4025	229.126587857248	1
40	4055	233.2	12
40	4077	235.1	18
40	4092	236.201627830336	10
40	4105	237.305660172858	10
40	4117	238.110007958271	7
40	4135	239.713796037487	15
40	4159	242.6	6
40	4191	245.5	28
40	4227	248.506320325089	29
40	4256	251.012405912714	24
40	4272	252.21393811764	11
40	4281	252.923210612028	6
40	4296	254.031278488009	10
40	4312	255.436291387427	13
40	4318	255.837876820642	3
40	4346	259	10
40	4356	259.9	8
40	4368	260.708098960935	7
40	4393	262.809986226965	20
40	4400	263.310267196082	4
40	4426	265.515468719858	21
40	4439	266.424363357273	8
40	4462	268.332599215649	18
40	4479	269.835934038876	14
40	4492	270.737144523944	8
40	4519	274.9	9
40	4535	276.2	12
40	4558	278.100956230808	18
40	4564	278.506950801354	3
40	4579	279.812154679753	12
40	4596	281.122053019058	12
40	4606	281.926938144248	7
40	4628	284.7	7
40	4636	285.4	6
40	4661	287.509518568846	20
40	4671	288.115786674869	5
40	4678	288.616009378965	4
40	4704	290.81727729054	21
40	4727	292.724743385767	18
40	4739	293.72539691048	9
40	4763	295.730119844493	19
40	4776	296.633529860409	8
40	4787	297.53906678635	8
40	4817	301.2	12
40	4829	302.1	8
40	4853	304.102389135209	19
40	4861	304.705742575174	5
40	4872	305.61432214358	8
40	4889	306.918784026281	12
40	4910	308.525377683602	15
40	4930	310.129614603249	15
40	4936	310.536226173564	3
40	4955	312.037754057454	14
40	4974	313.745327942114	16
40	5035	317	10
40	5053	318.5	14
40	5076	320.403682462559	18
40	5100	322.407420454034	19
40	5114	323.614901452131	11
40	5139	325.717840222987	20
40	5152	326.620334111401	8
40	5164	327.626178388081	9
40	5178	328.632569963759	9
40	5207	333.1	11
40	5220	334.1	9
40	5245	336.201913102264	20
40	5264	337.90474576302	16
40	5285	339.606294181499	16
40	5297	340.411300283755	7
40	5313	341.8157978965	13
40	5334	344.3	3
40	5341	344.9	5
40	5362	346.60866406454	16
40	5391	349.111526348129	24
40	5421	351.721349654608	25
40	5450	354.029503573857	22
40	5468	355.63843346579	15
40	5505	360	20
40	5518	361.2	11
40	5532	362.201920640617	9
40	5549	363.710838206444	14
40	5560	364.414556140788	6
40	5572	365.421582218369	9
40	5583	366.122398304857	6
40	5593	366.93027098073	7
40	5608	368.035238709504	10
40	5632	370.04154436898	19
40	5652	371.849208712492	17
40	5673	373.549580222866	16
40	5697	375.555659356535	19
40	5703	375.964168991908	3
40	5721	377.374152118766	13
40	5751	381.3	13
40	5777	383.6	22
40	5792	384.701556477602	10
40	5810	386.107557578072	13
40	5820	386.913486711088	7
40	5830	387.715304318292	7
40	5859	390.022817489814	22
40	5887	392.430051126642	23
40	5901	393.636958688447	11
40	5910	394.138647912597	4
40	5940	399.2	12
40	5962	401.1	18
40	5970	401.704491995407	5
40	5983	402.607513609483	8
40	6003	404.216988011341	15
40	6020	405.724176677189	14
40	6029	406.227682663438	4
40	6039	407.027689366366	7
40	6065	409.231098213039	21
40	6071	409.633772485104	3
40	6089	412.2	2
40	6099	413.1	8
40	6108	413.806935608065	6
40	6133	415.910217888175	20
40	6147	416.918279648866	9
40	6154	417.426592148356	4
40	6161	417.934597499694	4
40	6198	421.9	19
40	6220	423.8	18
40	6244	425.808098780433	19
40	6256	426.612760638584	7
40	6280	428.614019156325	19
40	6284	428.822034743717	1
40	6308	430.825251918144	19
40	6342	435.9	19
40	6353	436.7	7
40	6367	437.90572757441	11
40	6379	438.708896454904	7
40	6385	439.109838603887	3
40	6421	443.8	18
40	6430	444.4	5
40	6438	445.004858532738	5
40	6446	445.60532574389	5
40	6470	448.6	6
40	6499	451.2	25
40	6516	452.505211593504	12
40	6524	453.11432455168	5
40	6534	453.915872952105	7
40	6556	455.725736033106	17
40	6568	456.533266178569	7
40	6578	457.339461074903	7
40	6599	459.042326395244	16
40	6614	460.148029633131	10
40	6629	461.452302212642	12
40	6643	462.462065354796	9
40	6666	464.366252738531	18
40	6699	469.5	15
40	6708	470.1	5
40	6724	471.508465525037	13
40	6743	473.014287484264	14
40	6753	473.822731392135	7
40	6772	475.324923463031	14
40	6791	476.833183869035	14
40	6809	480.3	3
40	6821	481.4	10
40	6846	483.508571681426	20
40	6874	485.911112834384	23
40	6890	487.117158319802	11
40	6911	488.822015294598	16
40	6933	490.629688508154	17
40	6948	491.938611275399	12
40	6966	493.346809456601	13
40	7006	496.1	1
40	7030	497.2	10
40	7045	497.802439244687	5
40	7084	499.504423724871	16
40	7118	500.905368795093	13
40	7125	501.114887778687	1
40	7165	502.819854311975	16
40	7239	507.1	11
40	7254	508.3	11
40	7268	509.509650162309	11
40	7281	510.414919378892	8
40	7301	512.019240790067	15
40	7329	517	10
40	7335	517.5	4
40	7341	517.901630129166	3
40	7356	519.006788897112	10
40	7371	520.1100239672	10
40	7383	521.110896168332	9
40	7391	521.714184850942	5
40	7410	524.1	1
40	7422	525.2	10
40	7444	527.000933036995	17
40	7459	528.101748039189	10
40	7479	529.911498280067	17
40	7488	530.411922110602	4
40	7510	532.220443645737	17
40	7532	534.029183807138	17
40	7553	535.931138433914	18
40	7570	537.238084879556	12
40	7576	537.639151479675	3
40	7594	539.043204212629	13
40	7611	542.1	1
40	7620	542.9	7
40	7630	543.701689107879	7
40	7645	544.809046287869	10
40	7655	545.617875496392	7
40	7669	546.624558812781	9
40	7683	547.834271268919	11
40	7697	548.835386319963	9
40	7713	550.035716579851	11
40	7726	551.14496308476	10
40	7739	552.046938296943	8
40	7766	554.354277913598	22
40	7791	556.455746668958	20
40	7816	558.563515663276	20
40	7823	559.064718385167	4
40	7845	562.4	4
40	7866	564.2	17
40	7876	565.006853687185	7
40	7884	565.612882173728	5
40	7900	566.821499041864	11
40	7919	568.325361700358	14
40	7943	570.332480790672	19
40	7953	571.133048068721	7
40	7971	572.542142110502	13
40	7994	576.5	5
40	8004	577.4	8
40	8017	578.308699611101	8
40	8040	580.216268867493	18
40	8063	582.122383480878	18
40	8075	583.127831326222	9
40	8092	584.436122775834	12
40	8103	585.343621527896	8
40	8122	586.846087447217	14
40	8134	587.851682726052	9
40	8144	588.457563650212	5
40	8175	593.3	13
40	8181	593.8	4
40	8198	595.100537410485	12
40	8211	596.006157722139	8
40	8221	596.811743784573	7
40	8231	597.61623023324	7
40	8267	601.8	18
40	8281	602.9	10
40	8290	603.608671425969	6
40	8294	603.808699402114	1
40	8307	604.712959379976	8
40	8332	606.822518839888	20
40	8344	607.823229971186	9
40	8369	609.931648535076	20
40	8397	612.139466892822	21
40	8415	613.743535546743	15
40	8442	616.9	9
40	8447	617.3	3
40	8460	618.209098098748	8
40	8473	619.316272735802	10
40	8485	620.116853667855	7
40	8515	625.2	12
40	8529	626.3	10
40	8545	627.701860460999	13
40	8571	629.906631286003	21
40	8599	632.107428380768	21
40	8607	632.707692527887	5
40	8616	633.409858007712	6
40	8634	634.81016719177	13
40	8654	636.416531766679	15
40	8660	636.81780810049	3
40	8688	641	10
40	8694	641.5	4
40	8719	643.604253401879	20
40	8731	644.405172270444	7
40	8748	645.907628773917	14
40	8756	646.308864096245	3
40	8766	647.108920492935	7
40	8771	647.410112253869	2
40	8777	647.812959511546	3
40	8792	648.917137221021	10
40	8800	649.519804268635	5
40	8835	653.7	17
40	8846	654.5	7
40	8855	655.200591393331	6
40	8862	655.701860774952	4
40	8877	656.804532694119	10
40	8907	659.411417300732	25
40	8939	662.013466811534	25
40	8947	662.61585962451	5
40	8971	664.624168045061	19
40	8992	666.328462871291	16
40	9022	671.2	12
40	9037	672.4	11
40	9046	673.105742859421	6
40	9062	674.313483882364	11
40	9076	675.518621563847	11
40	9093	676.82809203381	12
40	9100	677.338002012686	4
40	9116	678.546465240467	11
40	9143	683.1	11
40	9162	684.7	15
40	9182	686.309456959681	15
40	9191	687.013246068132	6
40	9202	687.915539603672	8
40	9221	689.422974264599	14
40	9239	690.826728368898	13
40	9271	695.7	17
40	9291	697.4	16
40	9302	698.109151692639	6
40	9307	698.409350395933	2
40	9317	699.217820400273	7
40	9335	700.626487516321	13
40	9342	701.131276825953	4
40	9347	701.440372147895	2
40	9352	701.749374696865	2
40	9356	701.950754452428	1
40	9365	702.457540718204	4
40	9402	707.9	19
40	9422	709.6	16
40	9453	712.108506565971	24
40	9478	714.216375461818	20
40	9490	715.220333815236	9
40	9513	717.129716220726	18
40	9517	717.339221006284	1
40	9542	719.449089521762	20
40	9564	721.254667899861	17
40	9589	724.7	7
40	9600	725.7	9
40	9611	726.404560191447	6
40	9624	727.505272704499	10
40	9648	729.514849042069	19
40	9660	730.322806516257	7
40	9684	732.325914195764	19
40	9713	737.4	14
40	9728	738.6	11
40	9750	740.406691863611	17
40	9755	740.713313533579	2
40	9767	741.717116291931	9
40	9780	742.626196705138	8
40	9790	743.43010028938	7
40	9819	747.4	14
40	9824	747.8	3
40	9833	748.307614235414	4
40	9839	748.707686663469	3
40	9860	750.411368244361	16
40	9883	752.314707739963	18
40	9888	752.615211830781	2
40	9906	754.020155085925	13
40	9915	754.729997696544	6
40	9948	759.5	15
40	9967	761.1	15
40	9973	761.507935316606	3
40	9988	762.610081279241	10
40	10019	765.310547774639	26
40	10034	766.411421642503	10
40	10040	766.815058941374	3
40	10047	767.318553242986	4
40	10061	768.320660125154	9
40	10077	769.721543979511	13
40	10101	772.6	6
40	10119	774.1	14
40	10136	775.607367999257	14
40	10148	776.411578259855	7
40	10155	776.916698714781	4
40	10182	780.9	9
40	10196	782	10
40	10221	784.104625380698	20
40	10240	785.806387501633	16
40	10271	789.3	13
40	10277	789.8	4
40	10291	790.806486707471	9
40	10307	792.007078092598	11
40	10319	793.011038023274	9
40	10326	793.515150891524	4
40	10350	796.6	6
40	10361	797.6	9
40	10374	798.503638699878	8
40	10381	799.00403271685	4
40	10390	799.708726797328	6
40	10403	800.618366146979	8
40	10415	801.622982062778	9
40	10442	803.927640594161	22
40	10453	804.631301372252	6
40	10473	806.235075790552	15
40	10486	807.337591902204	10
40	10502	808.542201555215	11
40	10511	809.243931474201	6
40	10553	814.2	22
40	10563	815.1	8
40	10569	815.50638375696	3
40	10590	817.214004724269	16
40	10608	818.618555325743	13
40	10627	820.126038544839	14
40	10632	820.429435807438	2
40	10659	824.9	9
40	10677	826.4	14
40	10687	827.202520430232	7
40	10705	828.605538716162	13
40	10730	830.707783138974	20
40	10755	832.811526601715	20
40	10771	834.018524561091	11
40	10784	835.125908791585	10
40	10805	836.826604935877	16
40	10833	841.2	12
40	10847	842.3	10
40	10858	843.205707330163	8
40	10873	844.315629263724	10
40	10884	845.21619767472	8
40	10899	846.317190447001	10
40	10912	847.422923076966	10
40	10933	850.6	6
40	10947	851.9	12
40	10955	852.303999193494	3
40	10984	854.813816835439	24
40	11001	856.123809055023	12
40	11021	857.924807247412	17
40	11035	858.928664788046	9
40	11064	861.434978958292	24
40	11085	864.3	3
40	11092	864.9	5
40	11104	865.903504719077	9
40	11124	867.505808406725	15
40	11140	868.712891824414	11
40	11153	869.816078795919	10
40	11177	871.824186972207	19
40	11192	872.932640718153	10
40	11211	874.436257824691	14
40	11235	876.44052027548	19
40	11251	877.843234822212	13
40	11271	880.4	4
40	11295	882.5	20
40	11326	885.206427283547	26
40	11354	887.611698625822	23
40	11363	888.117323675538	4
40	11379	889.524369267772	13
40	11411	893.4	14
40	11424	894.4	9
40	11431	894.900550769462	4
40	11442	895.807786366861	8
40	11462	897.417100531936	15
40	11473	898.124753609474	6
40	11498	902.7	7
40	11509	903.7	9
40	11527	905.10078403023	13
40	11552	907.209074129247	20
40	11559	907.716812138721	4
40	11578	909.226591626629	14
40	11592	910.233798618735	9
40	11609	911.742366463573	14
40	11625	912.942886913009	11
40	11632	913.449561828821	4
40	11659	916.9	9
40	11665	917.4	4
40	11678	918.30451692901	8
40	11688	919.111652222407	7
40	11703	920.219936350098	10
40	11711	920.827845695075	5
40	11743	923.629403947682	27
40	11756	924.533874748199	8
40	11778	926.338708726974	17
40	11787	927.046817375117	6
40	11795	927.647203848641	5
40	11826	931.3	13
40	11847	933.1	17
40	11851	933.309193244825	1
40	11858	933.818011463067	4
40	11877	935.327634252087	14
40	11891	936.33635897618	9
40	11902	937.245887716007	8
40	11938	941.8	18
40	11946	942.3	4
40	11970	944.308778167425	19
40	11994	946.318469959508	19
40	12001	946.825809380436	4
40	12025	948.831490645213	19
40	12032	949.338195608609	4
40	12039	949.841587847849	4
40	12050	950.547320353971	6
40	12085	955.9	19
40	12093	956.4	4
40	12115	958.200965814855	17
40	12137	960.007232560451	17
40	12158	961.910024171893	18
40	12180	963.715324951615	17
40	12204	965.718227286464	19
40	12216	966.528226892437	7
40	12240	968.535768068701	19
40	12247	969.045550317476	4
40	12266	972.2	2
40	12283	973.8	15
40	12308	975.909393523612	20
40	12325	977.21147079945	12
40	12337	978.020401076701	7
40	12353	979.420411007982	13
40	12371	980.823141354257	13
40	12401	985.2	12
40	12407	985.7	4
40	12414	986.003366583029	2
40	12423	986.707911447374	6
40	12447	988.710688532596	19
40	12461	989.916434203305	11
40	12488	992.024108973052	20
40	12497	992.728975378095	6
40	12521	994.729399166071	19
40	12556	999.7	17
40	12575	1001.3	15
40	12592	1002.601702809273	12
40	12614	1004.408484622717	17
40	12639	1006.508649170167	20
40	12661	1008.314881029768	17
40	12671	1009.11954824769	7
40	12694	1012.8	8
40	12704	1013.7	8
40	12714	1014.303992604829	5
40	12740	1016.513546228545	21
40	12748	1017.12179039928	5
40	12765	1018.42507264108	12
40	12788	1020.331954179148	18
40	12813	1024.7	7
40	12824	1025.7	9
40	12833	1026.205256498584	4
40	12840	1026.711893750466	4
40	12850	1027.511927774026	7
40	12871	1029.22029269562	16
40	12886	1030.324000928014	10
40	12922	1035.8	18
40	12939	1037.2	13
40	12952	1038.107416294321	8
40	12967	1039.409468564492	12
40	12983	1040.616383042662	11
40	13005	1042.423959294788	17
40	13019	1043.632645666627	11
40	13036	1044.934451792607	12
40	13042	1045.342066543357	3
40	13059	1046.651010928783	12
40	13086	1048.954577070465	22
40	13101	1050.059827318293	10
40	13131	1055.3	13
40	13153	1057.2	18
40	13161	1057.806762207814	5
40	13185	1059.808243467416	19
40	13203	1061.208767082196	13
40	13226	1063.11334915279	18
40	13234	1063.717701817532	5
40	13259	1066.7	7
40	13270	1067.7	9
40	13279	1068.202943872262	4
40	13293	1069.407011483143	11
40	13309	1070.613997726187	11
40	13324	1071.922209614096	12
40	13339	1073.026449914525	10
40	13363	1076.9	9
40	13373	1077.8	8
40	13382	1078.309564538281	4
40	13390	1078.915801746928	5
40	13402	1079.92429899159	9
40	13413	1080.54217761334	5
40	13433	1082.143912326334	15
40	13445	1083.152012857158	9
40	13466	1086.3	3
40	13488	1088.2	18
40	13497	1088.905391208012	6
40	13513	1090.114416295606	11
40	13540	1092.419266286261	22
40	13555	1093.724071714732	12
40	13571	1094.92988680929	11
40	13592	1096.636673742032	16
40	13604	1097.6425807746	9
40	13624	1099.246226935453	15
40	13642	1100.648702429622	13
40	13683	1106.1	21
40	13696	1107.3	11
40	13709	1108.203784459044	8
40	13724	1109.504856970791	12
40	13735	1110.212526345018	6
40	13766	1112.914992432869	26
40	13774	1113.519957903979	5
40	13786	1114.329537351647	7
40	13813	1116.632299524576	22
40	13819	1117.03625662547	3
40	13835	1118.244484484453	11
40	13844	1118.949457224524	6
40	13869	1122.7	7
40	13885	1124	12
40	13891	1124.404391708446	3
40	13898	1124.906397267652	4
40	13913	1126.01124012228	10
40	13920	1126.512977406321	4
40	13935	1127.816727368192	12
40	13952	1129.118799539299	12
40	13971	1130.627812735927	14
40	14022	1137.1	31
40	14031	1137.9	7
40	14046	1139.004051497995	10
40	14064	1140.406442393813	13
40	14071	1140.91345150272	4
40	14078	1141.416496596549	4
40	14092	1142.422124662386	9
40	14116	1144.428555225283	19
40	14137	1146.129899045706	16
40	14163	1150.8	8
40	14180	1152.2	13
40	14184	1152.409041566848	1
40	14192	1153.010625927137	5
40	14202	1153.818536369559	7
40	14217	1154.926939434854	10
40	14236	1156.433021763356	14
40	14252	1157.840728836057	13
40	14271	1159.34179756242	14
40	14288	1160.645249819628	12
40	14317	1165.1	11
40	14337	1166.8	16
40	14360	1168.705662681886	18
40	14377	1170.009096775752	12
40	14384	1170.510633614723	4
40	14400	1171.914360525592	13
40	14423	1173.816017773277	18
40	14438	1174.920117240459	10
40	14460	1178.4	4
40	14470	1179.3	8
40	14477	1179.804470792084	4
40	14493	1181.006532617881	11
40	14508	1182.110341998256	10
40	14519	1183.018887099093	8
40	14525	1183.421294233722	3
40	14540	1184.522835643559	10
40	14560	1186.125006044739	15
40	14592	1191.4	14
40	14616	1193.5	20
40	14631	1194.60532934552	10
40	14651	1196.210002681409	15
40	14660	1196.916040959629	6
40	14683	1198.82179479124	18
40	14690	1199.330103903161	4
40	14704	1200.331468284963	9
40	14718	1201.533387460568	11
40	14762	1206.4	24
40	14773	1207.4	9
40	14792	1208.90734460114	14
40	14809	1210.210804231699	12
40	14822	1211.3164417809	10
40	14836	1212.322018859841	9
40	14842	1212.727574512328	3
40	14866	1214.736718679222	19
40	14892	1216.942689809107	21
40	14919	1220.9	9
40	14929	1221.8	8
40	14952	1223.700776953629	18
40	14977	1225.809601976693	20
40	14996	1227.315290601512	14
40	15010	1228.317496300279	9
40	15020	1229.12156197522	7
40	15056	1233.8	18
40	15084	1236.1	22
40	15111	1238.40220101783	22
40	15126	1239.711266435626	12
40	15137	1240.414439958521	6
40	15153	1241.820635709211	13
40	15166	1242.723196800337	8
40	15183	1244.030774976184	12
40	15190	1244.532789202566	4
40	15217	1249	10
40	15227	1249.9	8
40	15247	1251.500087195211	15
40	15263	1252.709152066022	11
40	15269	1253.116381754739	3
40	15299	1257.2	12
40	15317	1258.7	14
40	15326	1259.401581396474	6
40	15346	1261.005831284438	15
40	15371	1263.111819002587	20
40	15392	1264.819130403432	16
40	15413	1266.526126325272	16
40	15428	1267.834603029966	12
40	15439	1268.540850893172	6
40	15464	1272.8	8
40	15467	1273	1
40	15472	1273.304972510421	2
40	15477	1273.605448978982	2
40	15489	1274.413713183571	7
40	15499	1275.221207434868	7
40	15506	1275.730035987701	4
40	15535	1279.4	14
40	15551	1280.7	12
40	15558	1281.203008076671	4
40	15567	1281.904460465967	6
40	15576	1282.41285844096	4
40	15580	1282.618582265952	1
40	15607	1284.921558276912	22
40	15622	1286.028496056025	10
40	15635	1287.134082322319	10
40	15657	1288.937246029542	17
40	15680	1290.83890112708	18
40	15701	1294.3	3
40	15706	1294.7	3
40	15725	1296.200557801653	14
40	15733	1296.801583628015	5
40	15740	1297.306364880295	4
40	15753	1298.209822287361	8
40	15759	1298.612621829539	3
40	15787	1303.3	13
40	15797	1304	6
40	15818	1305.902640678107	18
40	15835	1307.20974835477	12
40	15861	1309.415469411412	21
40	15889	1311.824802973292	23
40	15905	1313.024950185868	11
40	15922	1314.330448282913	12
40	15929	1314.838254200867	4
40	15940	1315.748220294219	8
40	15954	1316.750531806604	9
40	15979	1320.8	8
40	15987	1321.5	6
40	15994	1322.006760453816	4
40	16001	1322.51535652245	4
40	16013	1323.523595797238	9
40	16023	1324.332591547975	7
40	16043	1326.133656918049	17
40	16049	1326.533743038627	3
