version 2
run Join-18-20130520-16:32:13-32715
attr configname Join
attr datetime 20130520-16:32:13
attr experiment "\"Join\""
attr inifile omnetpp.ini
attr iterationvars $0=64
attr iterationvars2 "$0=64, $repetition=8"
attr measurement $0=64
attr network Network
attr processid 32715
attr repetition 8
attr replication #8
attr resultdir results
attr runnumber 18
attr seedset 18

vector 18  Network.dyn_peer[0]  lookupHopsSig:vector  ETV
18	433	22.6	6
18	436	22.8	1
18	440	23.002914430031	1
18	447	23.505700366767	4
18	457	24.114371299098	5
18	463	24.419866797108	2
18	488	28.7	7
18	493	29.1	3
18	498	29.402001943397	2
18	503	29.70685448371	2
18	512	30.212776588696	4
18	517	30.518616792423	2
18	522	30.827637722551	2
18	547	34.7	7
18	550	34.9	1
18	555	35.201213195514	2
18	561	35.609132497666	3
18	569	36.01549387511	3
18	574	36.318052304416	2
18	582	36.926913849556	5
18	587	37.234386958513	2
18	594	37.735894217948	4
18	603	38.240102576048	4
18	609	38.644049846933	3
18	614	38.951668444068	2
18	619	39.257157664826	2
18	624	39.564790969196	2
18	630	39.969515694988	3
18	650	42.2	2
18	654	42.5	2
18	663	43.200432685953	6
18	676	44.105824056774	8
18	681	44.410763258131	2
18	703	48.4	4
18	708	48.8	3
18	712	49.000404659865	1
18	719	49.504648581702	4
18	728	50.0128084585	4
18	748	54.2	2
18	756	54.9	6
18	764	55.502353724415	5
18	775	56.208999000174	6
18	782	56.70935223037	4
18	790	57.31704104553	5
18	795	57.619521906264	2
18	807	58.332623637856	6
18	813	58.741082704453	3
18	819	59.148134555706	3
18	825	59.551398663589	3
18	854	62.5	5
18	859	62.9	3
18	867	63.508817324496	5
18	876	64.018404601902	4
18	883	64.526598508377	4
18	892	65.231468812977	6
18	897	65.536461782907	2
18	902	65.845982428793	2
18	911	66.350306564473	4
18	916	66.657803159348	2
18	937	70.3	3
18	941	70.6	2
18	948	71.109691947754	4
18	956	71.71541352309	5
18	966	72.23352271803	4
18	973	72.742253927141	4
18	982	73.444874049103	6
18	992	74.048270170687	5
18	997	74.35510369703	2
18	1020	78.5	5
18	1027	79.000077136624	4
18	1035	79.609095941644	5
18	1045	80.210234430117	5
18	1054	80.824964681296	5
18	1058	81.02928473342	1
18	1083	84.7	7
18	1093	85.6	8
18	1097	85.802944985427	1
18	1105	86.207697518122	3
18	1112	86.714129879177	4
18	1137	90.7	7
18	1142	91.1	3
18	1149	91.600812205092	4
18	1160	92.310766033413	6
18	1168	92.91808160246	5
18	1172	93.127905999602	1
18	1177	93.436707546902	2
18	1188	94.14545849421	6
18	1197	94.84629985219	6
18	1215	98	0
18	1218	98.2	1
18	1225	98.708534345973	4
18	1232	99.217915539158	4
18	1237	99.52126040417	2
18	1247	100.127302357319	5
18	1255	100.732464022075	5
18	1278	104.5	5
18	1286	105.2	6
18	1293	105.701627511254	4
18	1300	106.004456372919	2
18	1308	106.607321561646	5
18	1334	110.8	8
18	1339	111.2	3
18	1344	111.509379689274	2
18	1350	111.91081020909	3
18	1357	112.217813554514	2
18	1362	112.521357828453	2
18	1368	112.926988277709	3
18	1387	116.4	4
18	1390	116.6	1
18	1395	116.906979849559	2
18	1402	117.414955910499	4
18	1408	117.815830052712	3
18	1418	118.321966896839	4
18	1450	122.6	6
18	1453	122.8	1
18	1461	123.309404275321	4
18	1466	123.616323330552	2
18	1471	123.920787102003	2
18	1478	124.220823481553	2
18	1485	124.722091763047	4
18	1491	125.12809604922	3
18	1497	125.531927171572	3
18	1518	128.3	3
18	1522	128.6	2
18	1527	128.904394691144	2
18	1536	129.609259512429	6
18	1544	130.012013208754	3
18	1570	134.8	8
18	1573	135	1
18	1581	135.604422940406	5
18	1586	135.818807448731	1
18	1592	136.023552990181	1
18	1598	136.424489600544	3
18	1603	136.726775204508	2
18	1608	137.028996574737	2
18	1614	137.434280817769	3
18	1619	137.739985087878	2
18	1643	140.6	6
18	1648	140.90742509453	2
18	1653	141.214493727929	2
18	1658	141.51568781175	2
18	1667	142.023265760329	4
18	1672	142.323494815195	2
18	1680	142.928592971977	5
18	1705	146.7	7
18	1711	147.2	4
18	1715	147.409377732954	1
18	1721	147.811592111112	3
18	1728	148.119463138388	2
18	1732	148.325745436829	1
18	1736	148.527771462784	1
18	1741	148.834771553496	2
18	1746	149.142693887254	2
18	1768	152.5	5
18	1775	153.001221713295	4
18	1779	153.205878950738	1
18	1785	153.606354304136	3
18	1791	153.91420711695	2
18	1798	154.117623281117	1
18	1823	158.7	7
18	1826	158.9	1
18	1831	159.20160601905	2
18	1837	159.60182579402	3
18	1842	159.906658484147	2
18	1848	160.106977106305	1
18	1853	160.408311364089	2
18	1877	164.9	9
18	1882	165.3	3
18	1886	165.500660948031	1
18	1892	165.90225286255	3
18	1902	166.505425125473	5
18	1907	166.813824979032	2
18	1916	167.515757035298	6
18	1922	167.92088851042	3
18	1941	170.1	1
18	1947	170.6	4
18	1953	171.004448242448	3
18	1959	171.409524918265	3
18	1965	171.714086304461	2
18	1972	172.020086973789	2
18	1979	172.526366132206	4
18	1986	173.030014640976	4
18	1991	173.330086152414	2
18	1997	173.730276257433	3
18	2021	176.6	6
18	2027	177.1	4
18	2032	177.409882889224	2
18	2037	177.718667981921	2
18	2056	180.1	1
18	2059	180.3	1
18	2065	180.702880479225	3
18	2071	181.112372571609	3
18	2076	181.420019571457	2
18	2082	181.822259650879	3
18	2090	182.224431517414	3
18	2096	182.630231385697	3
18	2101	182.934939877577	2
18	2107	183.335703287494	3
18	2113	183.736519694853	3
18	2120	184.044372968527	2
18	2127	184.55081408082	4
18	2134	184.958719507885	3
18	2142	185.564139378118	5
18	2148	185.969094368168	3
18	2156	186.376394071234	3
18	2182	190.9	9
18	2187	191.3	3
18	2192	191.603659121119	2
18	2200	192.010325357259	3
18	2205	192.313764915542	2
18	2210	192.614658099891	2
18	2216	193.015923764908	3
18	2221	193.322662927985	2
18	2228	193.825730959583	4
18	2236	194.233357531352	3
18	2243	194.739747143453	4
18	2263	198.2	2
18	2269	198.7	4
18	2275	199.10679937981	3
18	2284	199.80988063655	6
18	2295	200.519041619281	6
18	2304	201.226812296899	6
18	2310	201.635178010038	3
18	2315	201.943442009671	2
18	2326	202.649092202179	6
18	2331	202.956865281173	2
18	2351	206.2	2
18	2355	206.5	2
18	2363	207.107103439951	5
18	2368	207.410263748184	2
18	2374	207.818530477118	3
18	2384	208.424143703205	5
18	2388	208.625655208972	1
18	2412	212.6	6
18	2418	213.1	4
18	2425	213.60715234687	4
18	2433	214.010763194797	3
18	2441	214.61916064024	5
18	2445	214.822070743576	1
18	2452	215.326358464732	4
18	2460	215.935111673503	5
18	2468	216.33589229933	3
18	2475	216.841158535096	4
18	2479	217.051118230942	1
18	2483	217.258011310614	1
18	2490	217.763871032061	4
18	2498	218.172296670445	3
18	2521	222.5	5
18	2525	222.8	2
18	2533	223.406599651689	5
18	2540	223.909076416909	4
18	2546	224.10998910502	1
18	2554	224.713646816736	5
18	2574	228.2	2
18	2583	229	7
18	2589	229.402086016933	3
18	2596	229.911533901038	4
18	2602	230.115018101647	1
18	2608	230.520962898554	3
18	2614	230.929518975657	3
18	2637	234.5	5
18	2643	235	4
18	2650	235.507045290512	4
18	2654	235.711030875502	1
18	2662	236.112100820796	3
18	2667	236.412352093261	2
18	2692	240.7	7
18	2697	241.009164889261	2
18	2705	241.61843873446	5
18	2710	241.920384832556	2
18	2717	242.132833443628	1
18	2723	242.540006555618	3
18	2730	243.047210561319	4
18	2751	246.3	3
18	2757	246.8	4
18	2766	247.502746759832	6
18	2770	247.707890339323	1
18	2792	250.4	4
18	2798	250.9	4
18	2807	251.600405378432	6
18	2815	252.006732707914	3
18	2823	252.61434694273	5
18	2831	253.222785325027	5
18	2837	253.626166243411	3
18	2842	253.928015598782	2
18	2849	254.232572499638	2
18	2853	254.43816818981	1
18	2859	254.843255933041	3
18	2885	258.8	8
18	2894	259.6	7
18	2899	259.903719201327	2
18	2908	260.407536356008	4
18	2913	260.714628683434	2
18	2918	261.021873728056	2
18	2923	261.327291356421	2
18	2947	264.6	6
18	2952	265	3
18	2957	265.309252600395	2
18	2963	265.710500746401	3
18	2971	266.113014618287	3
18	2975	266.316294649297	1
18	2996	270.3	3
18	3002	270.8	4
18	3010	271.402296034854	5
18	3020	272.005355596525	5
18	3024	272.213286463274	1
18	3030	272.621045915659	3
18	3054	276.6	6
18	3057	276.8	1
18	3062	277.107910181581	2
18	3066	277.315847286024	1
18	3072	277.721396221561	3
18	3080	278.128782384785	3
18	3086	278.529991385199	3
18	3091	278.831137591214	2
18	3109	282.2	2
18	3114	282.6	3
18	3122	283.201078847467	5
18	3129	283.707543632583	4
18	3138	284.216900271004	4
18	3142	284.425464299175	1
18	3149	284.927596493501	4
18	3156	285.432948309488	4
18	3162	285.841742576984	3
18	3169	286.14197633972	2
18	3176	286.6476643107	4
18	3199	290.5	5
18	3204	290.9	3
18	3210	291.30510664321	3
18	3217	291.808657155399	4
18	3228	292.516707041222	6
18	3233	292.824002085498	2
18	3242	293.528690124885	6
18	3251	294.03434002628	4
18	3257	294.443602021806	3
18	3261	294.650209839191	1
18	3267	295.051976003379	3
18	3272	295.35538978507	2
18	3295	298.6	6
18	3303	299.3	6
18	3308	299.600323971605	2
18	3313	299.907156885622	2
18	3320	300.210700331585	2
18	3325	300.516337543107	2
18	3333	301.118920827454	5
18	3338	301.428725412513	2
18	3342	301.636348685908	1
18	3363	304.3	3
18	3367	304.6	2
18	3376	305.303021634498	6
18	3382	305.709040573788	3
18	3390	306.116172263572	3
18	3395	306.416819557574	2
18	3399	306.623069552174	1
18	3405	307.030116592003	3
18	3410	307.332628048113	2
18	3414	307.53830198798	1
18	3435	310.3	3
18	3441	310.8	4
18	3446	311.105097786039	2
18	3452	311.509630423143	3
18	3456	311.715600815661	1
18	3464	312.115970058297	3
18	3485	316.3	3
18	3490	316.7	3
18	3497	317.208000405398	4
18	3501	317.416484052333	1
18	3521	320.2	2
18	3527	320.7	4
18	3536	321.40145321591	6
18	3546	322.011032030025	5
18	3554	322.618494652296	5
18	3562	323.227826526752	5
18	3571	323.933501358393	6
18	3588	326.2	2
18	3594	326.7	4
18	3602	327.302940619064	5
18	3608	327.706951247299	3
18	3618	328.307037925141	5
18	3626	328.913811733134	5
18	3632	329.31421540491	3
18	3643	330.018782207234	6
18	3652	330.727292028578	6
18	3660	331.327477273811	5
18	3683	334.5	5
18	3690	335.1	5
18	3695	335.404702663971	2
18	3705	336.010343798589	5
18	3715	336.726436086704	6
18	3724	337.431286734656	6
18	3738	338.43866078243	9
18	3745	338.942205162873	4
18	3752	339.450030826018	4
18	3759	339.950526141414	4
18	3765	340.15339799676	1
18	3771	340.563316644231	3
18	3779	341.170669852549	5
18	3800	344.4	4
18	3806	344.9	4
18	3814	345.502681571594	5
18	3819	345.810482664089	2
18	3827	346.213946393345	3
18	3851	350.6	6
18	3854	350.8	1
18	3862	351.314159804561	4
18	3870	351.923797841432	5
18	3877	352.223915285914	2
18	3881	352.429835906688	1
18	3887	352.834475062177	3
18	3910	356.5	5
18	3914	356.8	2
18	3919	357.109581770859	2
18	3924	357.419476162082	2
18	3929	357.725063779399	2
18	3937	358.126511308467	3
18	3956	362.1	1
18	3962	362.6	4
18	3968	363.008465665923	3
18	3974	363.418368148065	3
18	3978	363.624233743286	1
18	3983	363.932888802232	2
18	3994	364.63716736438	6
18	4016	368.4	4
18	4022	368.9	4
18	4026	369.102609238647	1
18	4032	369.510760402969	3
18	4038	369.912834890581	3
18	4049	370.620963706307	6
18	4055	371.025433034184	3
18	4061	371.42788830178	3
18	4068	371.931682773427	4
18	4075	372.235010788409	2
18	4079	372.437987097719	1
18	4101	376.4	4
18	4107	376.9	4
18	4114	377.404307346523	4
18	4120	377.807245731863	3
18	4127	378.108190004564	2
18	4134	378.613071574065	4
18	4139	378.919906111666	2
18	4146	379.422058998687	4
18	4156	380.027673618156	5
18	4175	384.1	1
18	4179	384.4	2
18	4184	384.702617583381	2
18	4190	385.107056313724	3
18	4199	385.814637162695	6
18	4208	386.320935328968	4
18	4212	386.529362477541	1
18	4218	386.930539275512	3
18	4223	387.236557463087	2
18	4242	390.1	1
18	4246	390.4	2
18	4255	391.104518627708	6
18	4261	391.505119882914	3
18	4273	392.109260103938	5
18	4278	392.413914076108	2
18	4284	392.820485811868	3
18	4289	393.126420244969	2
18	4294	393.430661301692	2
18	4318	396.6	6
18	4323	397	3
18	4330	397.501510025025	4
18	4335	397.809057787321	2
18	4343	398.217056805893	3
18	4348	398.518321451608	2
18	4353	398.819204837989	2
18	4361	399.425646139867	5
18	4367	399.826295896635	3
18	4387	402.2	2
18	4394	402.8	5
18	4401	403.307024334331	4
18	4409	403.907392335321	5
18	4415	404.109373011576	1
18	4421	404.518813882422	3
18	4428	405.022891859135	4
18	4448	408.5	5
18	4452	408.8	2
18	4458	409.200583142319	3
18	4463	409.509792218876	2
18	4469	409.914730085092	3
18	4478	410.416603956696	4
18	4485	410.834717045	3
18	4491	411.236864348556	3
18	4512	414.3	3
18	4517	414.7	3
18	4524	415.200998626344	4
18	4530	415.609152989654	3
18	4539	416.115085303397	4
18	4545	416.518684442658	3
18	4555	417.326849319813	7
18	4563	417.930312135137	5
18	4569	418.138595235742	1
18	4577	418.74651649327	5
18	4585	419.352950670835	5
18	4590	419.659234523772	2
18	4610	422.2	2
18	4614	422.5	2
18	4625	423.404411828524	8
18	4631	423.812039139516	3
18	4639	424.212785122011	3
18	4645	424.61951839729	3
18	4649	424.821984321784	1
18	4674	428.7	7
18	4677	428.9	1
18	4684	429.403244628307	4
18	4689	429.705115273344	2
18	4698	430.210721304352	4
18	4718	434.2	2
18	4724	434.7	4
18	4730	435.105797455494	3
18	4739	435.811571375864	6
18	4746	436.114227847048	2
18	4755	436.822545057063	6
18	4759	437.022549751059	1
18	4766	437.52853291427	4
18	4775	438.029587470958	4
18	4793	442.1	1
18	4801	442.8	6
18	4808	443.30156241286	4
18	4815	443.716299759497	3
18	4825	444.317984764681	5
18	4830	444.626016307927	2
18	4837	445.130790340257	4
18	4845	445.644396939839	4
18	4856	446.351018342771	6
18	4862	446.755985359935	3
18	4882	450.3	3
18	4886	450.6	2
18	4894	451.205712680013	5
18	4899	451.515692572733	2
18	4904	451.819879961998	2
18	4910	452.029463249588	1
18	4916	452.438171634176	3
18	4921	452.740783910753	2
18	4928	453.249909262009	4
18	4949	456.5	5
18	4952	456.7	1
18	4959	457.207367640356	4
18	4965	457.613106538899	3
18	4976	458.317589139709	6
18	4984	458.923473192182	5
18	4990	459.329252736974	3
18	4996	459.739074128608	3
18	5004	460.140421781684	3
18	5028	464.8	8
18	5033	465.2	3
18	5040	465.702081932348	4
18	5048	466.107264627988	3
18	5053	466.413141751735	2
18	5061	467.018859338782	5
18	5066	467.322162109483	2
18	5070	467.523009474305	1
18	5075	467.824895876261	2
18	5082	468.128189168992	2
18	5087	468.43133682342	2
18	5094	468.933521956249	4
18	5117	472.5	5
18	5122	472.9	3
18	5126	473.106097826301	1
18	5130	473.309402254291	1
18	5136	473.712812563276	3
18	5143	474.014738042531	2
18	5151	474.623313555817	5
18	5157	475.030296562378	3
18	5178	478.3	3
18	5184	478.8	4
18	5192	479.400176456328	5
18	5198	479.804434559647	3
18	5207	480.307532990813	4
18	5213	480.708395514498	3
18	5232	484.1	1
18	5243	485.1	9
18	5247	485.304849571799	1
18	5253	485.705476224321	3
18	5275	488.4	4
18	5278	488.6	1
18	5286	489.20767454589	5
18	5291	489.417179050528	1
18	5296	489.722928279879	2
18	5305	490.228049472447	4
18	5312	490.734256304057	4
18	5333	494.3	3
18	5338	494.7	3
18	5344	495.102988948747	3
18	5351	495.604460519323	4
18	5360	496.113985253054	4
18	5366	496.52048522282	3
18	5372	496.928907842355	3
18	5395	500.5	5
18	5399	500.8	2
18	5404	501.101175923189	2
18	5410	501.410732642642	2
18	5422	502.211471029002	7
18	5426	502.417011731412	1
18	5431	502.724855630184	2
18	5435	502.927341182311	1
18	5444	503.633581859022	6
18	5469	506.7	7
18	5476	507.3	5
18	5481	507.601334631503	2
18	5486	507.904968218269	2
18	5494	508.305836952669	3
18	5500	508.708819605969	3
18	5521	512.3	3
18	5527	512.8	4
18	5533	513.203694696258	3
18	5538	513.5105586314	2
18	5543	513.811754497015	2
18	5550	514.115758305159	2
18	5569	518.1	1
18	5572	518.3	1
18	5577	518.602498919521	2
18	5583	519.009325818486	3
18	5590	519.518910174669	4
18	5596	519.923920847572	3
18	5608	520.730323279026	7
18	5633	524.7	7
18	5642	525.5	7
18	5648	525.908096540262	3
18	5658	526.508572200279	5
18	5664	526.912874014606	3
18	5672	527.515808064451	5
18	5676	527.725492824891	1
18	5680	527.931603411403	1
18	5699	530.1	1
18	5704	530.5	3
18	5712	531.100640893534	5
18	5720	531.702042175298	5
18	5729	532.205132951051	4
18	5734	532.50771877173	2
18	5756	536.4	4
18	5762	536.9	4
18	5769	537.401202848362	4
18	5775	537.804002671548	3
18	5786	538.507190656614	6
18	5811	542.7	7
18	5815	543	2
18	5819	543.200677889378	1
18	5824	543.50992257042	2
18	5830	543.916355047259	3
18	5841	544.620269110191	6
18	5845	544.82185485803	1
18	5851	545.228566836655	3
18	5856	545.534055121718	2
18	5862	545.940767811059	3
18	5870	546.349963738782	3
18	5875	546.651055025485	2
18	5896	550.4	4
18	5901	550.8	3
18	5907	551.209465115694	3
18	5911	551.417954351678	1
18	5931	554.2	2
18	5936	554.6	3
18	5942	555.009919803133	3
18	5947	555.314216278039	2
18	5955	555.91571475807	5
18	5961	556.121086505373	1
18	5966	556.424359755812	2
18	5988	560.4	4
18	5994	560.9	4
18	6001	561.401538997949	4
18	6008	561.908463306766	4
18	6015	562.21324667838	2
18	6021	562.6154884308	3
18	6028	563.124654536028	4
18	6035	563.634140841788	4
18	6054	566.3	3
18	6057	566.5	1
18	6062	566.808089432145	2
18	6066	567.016935154512	1
18	6071	567.320515654443	2
18	6082	568.023212476973	6
18	6086	568.231565654039	1
18	6094	568.835091296756	5
18	6102	569.437503736371	5
18	6108	569.84039276385	3
18	6118	570.441838232218	5
18	6124	570.748459402859	2
18	6148	574.6	6
18	6152	574.9	2
18	6157	575.20705299241	2
18	6161	575.416439774844	1
18	6165	575.624121559571	1
18	6170	575.925980989519	2
18	6178	576.330977973349	3
18	6201	580.5	5
18	6206	580.806874497309	2
18	6210	581.007554505376	1
18	6216	581.412365037313	3
18	6226	582.013464461142	5
18	6234	582.623252293421	5
18	6254	586.2	2
18	6261	586.8	5
18	6266	587.105665757341	2
18	6271	587.411621200392	2
18	6281	588.018161962321	5
18	6289	588.620510903596	5
18	6310	592.3	3
18	6313	592.5	1
18	6319	592.904018252994	3
18	6325	593.304992278969	3
18	6330	593.608503027931	2
18	6341	594.221308612147	5
18	6348	594.724199949352	4
18	6356	595.327539814529	5
18	6376	598.2	2
18	6382	598.7	4
18	6387	599.000485116154	2
18	6392	599.307235948905	2
18	6400	599.908327232304	5
18	6410	600.512280927505	5
18	6418	601.120260708161	5
18	6423	601.425813377754	2
18	6428	601.732834654392	2
18	6436	602.136993992421	3
18	6456	606.3	3
18	6462	606.8	4
18	6467	607.105557357799	2
18	6475	607.707314305619	5
18	6482	608.01488955197	2
18	6506	612.6	6
18	6510	612.9	2
18	6515	613.201498601222	2
18	6520	613.508313245712	2
18	6526	613.913120689714	3
18	6532	614.11393119222	1
18	6537	614.415471849585	2
18	6559	618.7	7
18	6564	619.1	3
18	6568	619.304484854505	1
18	6574	619.71387384001	3
18	6581	620.01569804156	2
18	6586	620.316920071235	2
18	6590	620.517054269041	1
18	6601	621.424399598377	8
18	6622	624.3	3
18	6628	624.8	4
18	6634	625.204089937012	3
18	6639	625.509427585212	2
18	6645	625.915670786666	3
18	6652	626.215709992729	2
18	6660	626.817229954644	5
18	6685	630.7	7
18	6690	631.1	3
18	6694	631.305179819124	1
18	6699	631.612632001344	2
18	6707	632.013980354071	3
18	6714	632.424355321975	3
18	6720	632.830577858608	3
18	6725	633.136451390323	2
18	6738	634.044609759503	8
18	6761	638.5	5
18	6766	638.9	3
18	6771	639.204859316125	2
18	6775	639.408242313118	1
18	6779	639.611000507754	1
18	6789	640.215378460083	5
18	6793	640.420692071306	1
18	6798	640.722944399787	2
18	6821	644.5	5
18	6826	644.9	3
18	6834	645.409537669513	4
18	6840	645.811525326808	3
18	6849	646.31826035272	4
18	6858	647.020579110473	6
18	6864	647.427413852494	3
18	6870	647.830474413137	3
18	6878	648.237720177408	3
18	6884	648.646813180287	3
18	6892	649.250536006094	5
18	6915	652.6	6
18	6920	653	3
18	6926	653.401922791912	3
18	6934	654.011309041543	5
18	6938	654.213257935125	1
