version 2
run Join-57-20130520-16:32:34-32715
attr configname Join
attr datetime 20130520-16:32:34
attr experiment "\"Join\""
attr inifile omnetpp.ini
attr iterationvars $0=1024
attr iterationvars2 "$0=1024, $repetition=7"
attr measurement $0=1024
attr network Network
attr processid 32715
attr repetition 7
attr replication #7
attr resultdir results
attr runnumber 57
attr seedset 57

vector 57  Network.dyn_peer[0]  lookupHopsSig:vector  ETV
57	3085	20.613081691564	11
57	3108	22.51448854974	18
57	3127	24.023084676025	14
57	3153	26.232938581161	21
57	3168	27.537377991041	12
57	3199	31.3	13
57	3219	33	16
57	3237	34.40214922575	13
57	3264	36.705918286896	22
57	3305	42.1	21
57	3316	43.1	9
57	3336	44.704238767737	15
57	3366	47.307824091847	25
57	3380	48.315372960973	9
57	3408	50.718177084571	23
57	3428	52.323875697103	15
57	3441	53.432788680818	10
57	3496	56.7	7
57	3513	57.5	7
57	3548	60.108090391748	25
57	3564	61.511228656587	13
57	3584	63.113843395062	15
57	3601	64.416537334829	12
57	3617	65.818560837943	13
57	3626	66.32593018519	4
57	3635	67.026625475597	6
57	3653	68.42693729557	13
57	3669	69.829615447885	13
57	3699	72.230380123314	23
57	3814	79.4	34
57	3835	80.3	8
57	3891	82.708579801761	23
57	3916	84.317438799769	15
57	3933	85.818330052802	14
57	3951	87.220980313564	13
57	3971	88.823550280583	15
57	3984	89.926942980248	10
57	4008	91.927307212818	19
57	4054	96.6	26
57	4065	97.6	9
57	4082	98.90615901516	12
57	4109	101.209573737002	22
57	4117	101.809722061384	5
57	4141	103.815422132709	19
57	4151	104.416555898711	5
57	4161	105.219539607495	7
57	4167	105.625539068723	3
57	4181	106.634028592576	9
57	4244	110.9	9
57	4277	112.8	18
57	4293	114.000224241893	11
57	4302	114.701053095282	6
57	4323	116.407920805408	16
57	4335	117.415681970581	9
57	4348	118.321641486825	8
57	4366	119.931478015598	15
57	4390	121.941126178513	19
57	4406	123.15060584544	11
57	4422	124.360070597152	11
57	4484	132.1	41
57	4510	134.4	22
57	4535	136.507358902236	20
57	4549	137.713247894208	11
57	4572	139.621747349217	18
57	4590	141.024658780736	13
57	4620	143.632756968939	25
57	4646	145.840587552275	21
57	4662	147.045561555599	11
57	4690	149.446325463527	23
57	4719	151.955313943296	24
57	4735	153.155871007581	11
57	4756	154.857938606314	16
57	4787	157.563188948872	26
57	4830	160.2	2
57	4853	161.3	10
57	4881	163.108709339885	17
57	4897	164.309973889294	11
57	4917	168.2	2
57	4930	169.4	11
57	4948	170.800034860747	13
57	4959	171.70623689985	8
57	4980	173.408306561227	16
57	4997	174.716696322677	12
57	5028	177.417732015813	26
57	5047	178.919275135155	14
57	5073	181.125503521309	21
57	5115	186.2	22
57	5122	186.8	5
57	5144	188.609866054293	17
57	5164	190.215093613746	15
57	5177	191.316545584208	10
57	5201	193.321909598805	19
57	5222	195.02696815716	16
57	5244	196.83177195178	17
57	5254	197.638865309011	7
57	5286	201.4	14
57	5310	203.5	20
57	5321	204.208283489993	6
57	5345	206.209964279634	19
57	5349	206.416445704446	1
57	5357	207.02193291138	5
57	5382	209.1292049974	20
57	5407	213	10
57	5420	214	9
57	5437	215.508154411795	14
57	5455	216.914572135954	13
57	5467	217.920022300089	9
57	5485	219.326351986265	13
57	5493	219.934399770494	5
57	5512	221.44243546922	14
57	5522	222.044793165712	5
57	5577	229.7	37
57	5606	232.1	23
57	5633	234.401114270053	22
57	5669	237.601317856122	31
57	5703	241.6	16
57	5727	243.7	20
57	5750	245.604079311641	18
57	5773	247.510958380803	18
57	5795	249.320378122615	17
57	5820	251.430130473134	20
57	5847	253.736968192652	22
57	5876	257.1	11
57	5881	257.5	3
57	5896	258.604471415197	10
57	5909	259.706644041581	10
57	5926	261.009837592005	12
57	5937	261.912055940558	8
57	5948	262.612456957746	6
57	6004	269.9	39
57	6023	271.5	15
57	6036	272.407832303727	8
57	6053	273.91039634559	14
57	6077	275.914128338766	19
57	6097	277.520785927939	15
57	6116	279.026431297665	14
57	6154	284.1	21
57	6166	285.2	10
57	6189	287.104618940535	18
57	6211	288.909362431676	17
57	6229	290.316761442818	13
57	6241	291.325057780422	9
57	6265	293.325240327004	19
57	6284	294.832228883077	14
57	6304	296.432874122844	15
57	6335	301.3	13
57	6352	302.7	13
57	6361	303.401351291842	6
57	6380	304.90946637591	14
57	6391	305.813873575447	8
57	6403	306.614123531166	7
57	6417	307.817549690234	11
57	6443	311.1	11
57	6463	312.8	16
57	6469	313.205461684765	3
57	6488	314.714005652108	14
57	6497	315.414916522918	6
57	6502	315.724132555276	2
57	6527	317.830372490552	20
57	6536	318.338567296599	4
57	6577	324.1	21
57	6591	325.4	12
57	6602	326.106026981188	6
57	6620	327.71041875823	15
57	6635	328.814163972349	10
57	6651	330.020532065976	11
57	6664	331.122778446806	10
57	6672	331.725718307631	5
57	6688	332.929286846901	11
57	6708	334.536803785495	15
57	6718	335.345937854447	7
57	6725	335.84928361033	4
57	6734	336.356219336182	4
57	6763	338.864687765518	24
57	6796	343.5	15
57	6811	344.7	11
57	6820	345.409409911127	6
57	6853	348.115471991351	26
57	6871	349.717171273884	15
57	6887	350.926206376159	11
57	6911	352.92888577108	19
57	6988	357.9	19
57	7025	359.5	15
57	7067	361.308518663581	17
57	7092	362.310676580943	9
57	7107	362.911232034983	5
57	7122	363.519717444053	5
57	7150	364.719766520224	11
57	7217	368.9	9
57	7240	370.9	19
57	7249	371.606508913338	6
57	7263	372.611660400307	9
57	7275	373.619120845714	9
57	7293	375.024372494889	13
57	7311	376.42770064766	13
57	7322	377.329059406567	8
57	7347	379.431541486316	20
57	7360	380.339378329306	8
57	7369	381.040469833184	6
57	7380	381.945861621892	8
57	7397	383.246087511858	12
57	7420	385.151810902316	18
57	7454	389.6	16
57	7473	391.2	15
57	7503	393.80241892626	25
57	7535	396.408738299633	25
57	7545	397.211928056873	7
57	7563	398.614355556067	13
57	7571	399.220432562239	5
57	7583	400.021892144659	7
57	7600	401.523491364503	14
57	7675	405.7	17
57	7724	407.8	20
57	7734	408.103295630828	2
57	7746	408.512313456781	3
57	7768	409.514892255418	9
57	7794	410.92223127849	13
57	7819	413.02406755979	20
57	7840	414.730727756976	16
57	7869	417.23290186967	24
57	7914	422.5	25
57	7944	425.2	26
57	7961	426.506140900535	12
57	7968	427.012897955469	4
57	7978	427.818887141005	7
57	7987	428.320196693379	4
57	8013	432.8	8
57	8021	433.5	6
57	8036	434.605271759848	10
57	8043	435.108749605391	4
57	8051	435.715469467711	5
57	8060	436.222952633124	4
57	8083	438.128630727055	18
57	8106	440.037343614537	18
57	8119	441.142786256408	10
57	8152	445.7	17
57	8175	447.7	19
57	8183	448.108458300558	3
57	8193	448.914962470498	7
57	8209	450.116862900051	11
57	8233	452.123113971612	19
57	8240	452.628174350397	4
57	8250	453.436661834498	7
57	8274	455.441371942688	19
57	8294	457.049962415019	15
57	8305	457.950163216601	8
57	8333	460.153154648936	21
57	8347	461.362349764581	11
57	8371	464.7	7
57	8393	466.6	18
57	8405	467.60422984861	9
57	8421	468.804389728488	11
57	8438	470.106315758548	12
57	8454	471.509035528605	13
57	8489	474.411886962908	28
57	8516	476.712970599748	22
57	8527	477.614158494425	8
57	8631	481.4	14
57	8655	482.1	6
57	8707	484.204689048251	20
57	8733	486.114453680731	18
57	8745	487.122323608846	9
57	8760	488.226752230243	10
57	8774	489.427221197019	11
57	8790	490.628927258414	11
57	8818	493.030634108316	23
57	8851	497.5	15
57	8866	498.7	11
57	8899	501.604973159658	28
57	8923	503.605175763144	19
57	8935	504.41124678338	7
57	8943	505.017947749882	5
57	8959	506.224485224625	11
57	8996	511.9	19
57	9024	514.2	22
57	9040	515.609005561983	13
57	9054	516.614888297077	9
57	9066	517.617928441909	9
57	9085	519.126315082364	14
57	9107	520.927509441879	17
57	9138	525.3	13
57	9167	527.9	25
57	9178	528.600352516765	6
57	9197	530.100528012643	14
57	9214	531.600790944882	14
57	9238	533.609129656274	19
57	9256	535.011025704068	13
57	9273	536.316663302205	12
57	9309	541.8	18
57	9318	542.4	5
57	9330	543.406101168803	9
57	9344	544.407619980591	9
57	9356	545.413625670316	9
57	9371	546.516330523044	10
57	9382	547.421722078614	8
57	9393	548.129265633252	6
57	9423	550.732698540262	25
57	9434	551.635842169619	8
57	9453	553.141239053015	14
57	9489	557.8	18
57	9501	558.7	8
57	9523	560.508449744409	17
57	9535	561.51017876593	9
57	9553	562.916412232176	13
57	9564	563.817219371353	8
57	9583	565.322784491844	14
57	9627	570.7	27
57	9647	572.4	16
57	9652	572.705712610278	2
57	9672	574.307688692686	15
57	9698	576.51610393735	21
57	9707	577.218073979668	6
57	9723	578.427040174506	11
57	9738	579.734192402679	12
57	9754	580.939995618506	11
57	9769	582.041086808409	10
57	9784	583.343671165367	12
57	9803	584.84866250341	14
57	9832	589.2	12
57	9850	590.7	14
57	9864	591.908006492396	11
57	9901	595.012943400288	30
57	9928	598.9	9
57	9957	601.5	25
57	9974	602.80559647053	12
57	9993	604.310035856629	14
57	10002	605.015868542005	6
57	10018	606.218309684278	11
57	10022	606.420278439813	1
57	10051	608.923334507832	24
57	10119	615.1	31
57	10132	616.1	9
57	10144	617.10965775625	9
57	10168	619.111479465909	19
57	10193	621.216041320114	20
57	10215	623.019562513454	17
57	10236	624.71962300455	16
57	10261	626.824839106852	20
57	10300	630.130019010098	32
57	10315	631.434225054899	12
57	10390	635.6	16
57	10455	638.6	29
57	10466	639.50240086965	8
57	10490	641.507971723025	19
57	10533	646.3	23
57	10550	647.9	15
57	10568	649.304497125488	13
57	10591	651.209291088058	18
57	10596	651.518107787834	2
57	10608	652.3258589045	7
57	10623	653.628040977029	12
57	10656	656.337708665143	26
57	10668	657.346334354876	9
57	10687	658.850013158252	14
57	10715	663.2	12
57	10734	664.8	15
57	10747	665.908443981071	10
57	10760	666.8156344131	8
57	10777	668.117168069585	12
57	10804	670.419960172449	22
57	10815	671.329616042857	8
57	10840	673.42966361439	20
57	10847	673.93842242698	4
57	10861	674.945584747069	9
57	10887	678.8	8
57	10897	679.7	8
57	10910	680.60090199022	8
57	10928	682.006073828687	13
57	10944	683.41049620087	13
57	10958	684.412274725606	9
57	10973	685.718931273109	12
57	11010	690	20
57	11023	691.2	11
57	11039	692.406568949285	11
57	11060	694.108909952325	16
57	11089	696.613673291805	24
57	11102	697.720882177762	10
57	11122	699.325557364108	15
57	11136	700.328179508579	9
57	11154	701.936524303456	15
57	11191	705.043550221336	30
57	11209	706.444708128027	13
57	11226	707.947293096324	14
57	11246	709.551817380289	15
57	11272	711.76109081738	21
57	11306	715.6	16
57	11331	717.8	21
57	11352	719.505178614647	16
57	11380	721.90757437457	23
57	11452	729	50
57	11468	730.3	12
57	11484	731.708283155795	13
57	11500	732.914423700188	11
57	11521	734.61669588758	16
57	11533	735.623280392909	9
57	11543	736.225519298057	5
57	11568	738.329136926161	20
57	11584	739.736039797083	13
57	11591	740.042109276171	2
57	11625	745.6	16
57	11649	747.7	20
57	11689	751.103305392505	33
57	11695	751.51126785695	3
57	11722	753.815489220222	22
57	11744	756.4	4
57	11755	757.4	9
57	11771	758.608561287161	11
57	11794	760.511871386947	18
57	11816	762.318820483113	17
57	11827	763.223660777976	8
57	11854	766.9	9
57	11885	769.7	27
57	11909	771.705663488165	19
57	11921	772.508213796031	7
57	11942	774.210827064052	16
57	11960	775.816348264835	15
57	11979	777.324488077958	14
57	11998	778.826537736896	14
57	12015	780.128610212413	12
57	12044	782.638015755637	24
57	12080	787.8	18
57	12098	789.3	14
57	12119	791.006623941604	16
57	12135	792.2145243201	11
57	12151	793.617683486315	13
57	12171	795.220784778777	15
57	12185	796.226819627751	9
57	12204	797.936289224615	16
57	12220	799.142883675598	11
57	12244	801.144641122567	19
57	12257	802.052520643517	8
57	12286	804.561426007861	24
57	12299	805.671098111226	10
57	12311	806.478168838041	7
57	12332	808.181148252171	16
57	12360	810.588357798979	23
57	12392	815.4	14
57	12408	816.7	12
57	12429	818.406329912093	16
57	12443	819.607327997334	11
57	12461	821.012485378537	13
57	12467	821.416731776866	3
57	12487	823.017330462635	15
57	12503	824.226545998501	11
57	12515	825.228533287733	9
57	12533	826.628740173857	13
57	12559	831	10
57	12584	833.2	21
57	12600	834.409603883088	11
57	12617	835.919324642151	14
57	12639	837.72778565157	17
57	12662	839.635996445534	18
57	12687	841.738084907846	20
57	12702	842.847352603203	10
57	12725	844.656065947787	17
57	12757	849.4	14
57	12777	851.1	16
57	12793	852.308912867866	11
57	12805	853.312597216267	9
57	12817	854.114082497371	7
57	12830	855.222869454474	10
57	12855	857.332148894815	20
57	12881	859.533120845787	21
57	12908	861.838256347696	22
57	12927	863.346110129253	14
57	12935	863.950691678655	5
57	12957	865.752899028538	17
57	12987	868.161554913323	23
57	13006	872.2	2
57	13023	873.8	15
57	13048	875.907379639707	20
57	13065	877.208666473512	12
57	13086	878.910414079023	16
57	13106	880.519554045948	15
57	13116	881.328892435347	7
57	13129	882.233999594121	8
57	13154	884.33538794577	20
57	13177	888.5	5
57	13197	890.2	16
57	13220	892.106277978937	18
57	13228	892.714365474523	5
57	13248	894.323895529531	15
57	13270	896.131250320271	17
57	13286	897.5376543856	13
57	13320	901.9	19
57	13343	903.9	19
57	13366	905.809690900233	18
57	13387	907.519381508142	16
57	13442	912.224003804232	46
57	13461	913.929103591771	16
57	13483	915.738632298077	17
57	13499	916.939068218872	11
57	13527	919.348760296722	23
57	13549	921.157967649287	17
57	13576	924.9	9
57	13598	926.8	18
57	13620	928.606638601052	17
57	13647	930.907398776053	22
57	13670	932.811987430541	18
57	13690	934.414968334973	15
57	13719	936.919122743775	24
57	13726	937.419139596224	4
57	13754	939.820741186796	23
57	13767	940.729044139887	8
57	13792	944.7	7
57	13798	945.2	4
57	13840	948.809804774383	35
57	13852	949.816976793554	9
57	13883	952.318349395158	24
57	13908	954.418487859329	20
57	13935	958.9	9
57	13955	960.6	16
57	13980	962.709229182009	20
57	14004	964.70987751427	19
57	14032	967.116403337746	23
57	14067	970.016418969133	28
57	14091	972.025262392615	19
57	14116	974.127578887643	20
57	14155	980.1	21
57	14167	981.2	10
57	14175	981.809412674219	5
57	14200	983.910790558934	20
57	14233	986.613603248581	26
57	14259	988.821570878598	21
57	14288	991.323127309625	24
57	14303	992.423905771787	10
57	14370	997.4	14
57	14405	999	15
57	14443	1000.603633283379	15
57	14489	1002.613187006744	19
57	14512	1004.116224011475	14
57	14523	1005.023739078153	8
57	14534	1005.929085830842	8
57	14556	1007.735932142742	17
57	14564	1008.136807588718	3
57	14607	1014.3	23
57	14621	1015.6	12
57	14630	1016.105500353346	4
57	14643	1017.208845950278	10
57	14665	1019.011212146288	17
57	14687	1022.4	4
57	14698	1023.4	9
57	14712	1024.40132795542	9
57	14735	1026.30417454027	18
57	14751	1027.708407411637	13
57	14765	1028.71299457057	9
57	14807	1034.2	22
57	14817	1035.1	8
57	14830	1036.008505140303	8
57	14856	1038.214363365124	21
57	14867	1039.118709838075	8
57	14890	1041.027779841645	18
57	14897	1041.528892770198	4
57	14914	1042.837961916977	12
57	14923	1043.546984720739	6
57	14939	1044.754271461799	11
57	14962	1046.662276107099	18
57	14989	1050.9	9
57	15022	1053.9	29
57	15049	1056.007648006579	20
57	15067	1057.613536095758	15
57	15096	1061.1	11
57	15115	1062.7	15
57	15135	1064.303366846309	15
57	15147	1065.306988845297	9
57	15183	1068.307280341446	29
57	15217	1071.308358334136	29
57	15241	1073.314416432695	19
57	15295	1077.5	15
57	15336	1081.1	35
57	15352	1082.300988346945	11
57	15366	1083.505540753576	11
57	15377	1084.213367218895	6
57	15387	1085.016137285563	7
57	15405	1086.423278419051	13
57	15430	1088.53100365261	20
57	15462	1093.4	14
57	15484	1095.3	18
57	15502	1096.709770892544	13
57	15507	1097.01041033667	2
57	15532	1099.112755525903	20
57	15599	1103.4	14
57	15637	1105.1	16
57	15645	1105.708080372447	5
57	15675	1108.116917273606	23
57	15680	1108.419721095565	2
57	15715	1113.7	17
57	15718	1113.9	1
57	15737	1115.401922705147	14
57	15759	1117.210092132891	17
57	15772	1118.117066474962	8
57	15788	1119.521793250404	13
57	15802	1120.529296105629	9
57	15821	1122.032390020337	14
57	15884	1130.1	41
57	15894	1131	8
57	15913	1132.507988225414	14
57	15934	1134.208190628254	16
57	15946	1135.218101788594	9
57	15969	1137.122219485796	18
57	15977	1137.725948300645	5
57	16021	1142.7	27
57	16026	1143.1	3
57	16040	1144.10278395544	9
57	16060	1145.911005475374	17
57	16076	1147.115991465593	11
57	16084	1147.723385723125	5
57	16099	1148.824898642044	10
57	16131	1153.7	17
57	16148	1155.1	13
57	16153	1155.406545678351	2
57	16167	1156.408408056159	9
57	16179	1157.410516866472	9
57	16186	1157.917660064267	4
57	16198	1158.727265978523	7
57	16217	1160.228931121174	14
57	16236	1161.931131029755	16
57	16253	1163.232519426764	12
57	16257	1163.433128945067	1
57	16273	1164.637403872293	11
57	16280	1165.144328144577	4
57	16300	1166.750517472564	15
57	16318	1168.157943024798	13
57	16353	1173.8	18
57	16358	1174	1
57	16367	1174.707856019702	6
57	16371	1174.914140613427	1
57	16389	1176.321916024737	13
57	16401	1177.325079423297	9
57	16429	1179.725906771345	23
57	16447	1181.131657244989	13
57	16454	1181.63306131897	4
57	16480	1183.842237574429	21
57	16497	1185.148249517552	12
57	16518	1186.855748104616	16
57	16534	1188.063871506228	11
57	16566	1193.6	16
57	16585	1195.2	15
57	16608	1197.105312119259	18
57	16633	1199.211529514875	20
57	16657	1201.21943758469	19
57	16672	1202.322061236215	10
57	16689	1203.822888438404	14
57	16700	1204.531359362826	6
57	16719	1206.034838495515	14
57	16770	1213.1	31
57	16797	1215.5	23
57	16823	1217.709280461419	21
57	16844	1219.417655260799	16
57	16864	1221.022951708043	15
57	16878	1222.024486871758	9
57	16893	1223.331740305808	12
57	16914	1225.03700907289	16
57	16941	1228.9	9
57	16970	1231.5	25
57	16992	1233.304230619221	17
57	17016	1235.306897921705	19
57	17037	1237.007223086469	16
57	17054	1238.3073274233	12
57	17081	1240.611933282114	22
57	17096	1241.915192290342	12
57	17109	1242.819538341243	8
57	17175	1250.4	44
57	17209	1253.5	30
57	17221	1254.309991486468	7
57	17242	1256.018034580167	16
57	17252	1256.826200301119	7
57	17262	1257.632627813835	7
57	17275	1258.533693430791	8
57	17316	1262.037711613817	34
57	17449	1268.3	23
57	17496	1270	16
57	17547	1273.204410196035	31
57	17569	1275.011068301582	17
57	17594	1277.114919679799	20
57	17600	1277.52271229086	3
57	17621	1279.22376888928	16
57	17642	1280.932713167299	16
57	17663	1282.636357333403	16
57	17734	1287.6	16
57	17773	1289.3	16
57	17799	1290.901411283547	15
57	17816	1292.202213429263	12
57	17830	1293.407221266621	11
57	17846	1294.611312716389	11
57	17861	1295.914319174333	12
57	17878	1297.22257079735	12
57	17895	1298.532140924207	12
57	17922	1303.1	11
57	17935	1304.1	9
57	17958	1306.005838778214	18
57	17979	1307.906725464055	18
57	18001	1309.711972010689	17
57	18031	1312.025920234796	22
57	18055	1314.03378153184	19
57	18094	1320.2	22
57	18106	1321.3	10
57	18128	1323.105012278917	17
57	18144	1324.31357395992	11
57	18155	1325.215393536403	8
57	18172	1326.520705608618	12
57	18184	1327.530541756876	9
57	18194	1328.130634807179	5
57	18206	1329.137470229757	9
57	18245	1332.443243622195	32
57	18287	1336.044950686599	35
57	18321	1341.6	16
57	18344	1343.6	19
57	18369	1345.704172212264	20
57	18388	1347.21003006287	14
57	18408	1348.819421867435	15
57	18420	1349.82564479598	9
57	18472	1353.3	13
57	18500	1355.8	24
57	18518	1357.204644752873	13
57	18535	1358.505417539853	12
57	18549	1359.707042822796	11
57	18561	1360.508087455625	7
57	18587	1362.711173191279	21
57	18631	1368.4	24
57	18650	1370	15
57	18670	1371.805466074966	17
57	18682	1372.6095948946	7
57	18700	1374.014929268647	13
57	18717	1375.524715060454	14
57	18749	1378.125189375278	25
57	18767	1379.726948043614	15
57	18790	1382.7	7
57	18810	1384.4	16
57	18836	1386.603883664773	21
57	18856	1388.213473603389	15
57	18883	1390.521265007887	22
57	18912	1393.0297080395	24
57	18937	1395.138923393704	20
57	18942	1395.442865981678	2
57	18959	1396.750670773426	12
57	18964	1397.052833134489	2
57	18995	1401.3	13
57	19011	1402.6	12
57	19019	1403.207504163156	5
57	19038	1404.714002312749	14
57	19072	1407.721176258135	29
57	19089	1409.025845672279	12
57	19098	1409.72826553849	6
57	19133	1412.629366392274	28
57	19143	1413.433189361423	7
57	19161	1414.835176430602	13
57	19178	1416.144021038474	12
57	19204	1418.34806840098	21
57	19232	1423	10
57	19247	1424.2	11
57	19259	1425.201538687995	9
57	19265	1425.605984627999	3
57	19276	1426.310599938154	6
57	19298	1428.118558904438	17
57	19317	1429.818730065855	16
57	19333	1431.021074184386	11
57	19338	1431.325063928916	2
57	19352	1432.327730696786	9
57	19357	1432.629076182341	2
57	19368	1433.536275898976	8
57	19386	1434.944391458086	13
57	19403	1436.24971239052	12
57	19414	1437.151653390754	8
57	19427	1438.060880428824	8
57	19438	1438.965878545664	8
57	19470	1443.5	15
57	19503	1446.3	27
57	19515	1447.307868876093	9
57	19530	1448.416498038779	10
57	19543	1449.522153552378	10
57	19563	1451.125061606898	15
57	19591	1453.526097237649	23
57	19626	1456.427579991332	28
57	19642	1457.829784685218	13
57	19658	1459.032920448447	11
57	19686	1461.440305703501	23
57	19715	1465.1	11
57	19723	1465.8	6
57	19738	1466.90964767398	10
57	19746	1467.512109233147	5
57	19769	1469.413160588603	18
57	19801	1472.020071287566	25
57	19852	1476.6	6
57	19877	1478.4	17
57	19902	1480.502811573194	20
57	19928	1482.709281386944	21
57	19952	1484.71283808078	19
57	19975	1486.614383752493	18
57	20016	1492.1	21
57	20044	1494.6	24
57	20067	1496.50265005019	18
57	20075	1497.109505737148	5
57	20094	1498.617996443697	14
57	20116	1500.424523958839	17
57	20132	1501.830034052734	13
57	20153	1503.535486761745	16
57	20185	1506.137905939499	25
57	20201	1507.540547366925	13
57	20247	1512.7	27
57	20266	1514.3	15
57	20282	1515.700253355114	13
57	20303	1517.406127731706	16
57	20317	1518.409648437203	9
57	20323	1518.814267285816	3
57	20347	1520.818350992927	19
57	20372	1522.924356520874	20
57	20391	1524.432265968117	14
57	20413	1526.234707608827	17
57	20438	1530.8	8
57	20446	1531.5	6
57	20457	1532.207517670858	6
57	20474	1533.708453504926	14
57	20482	1534.112674531194	3
57	20493	1535.012759251433	8
57	20501	1535.615563003054	5
57	20539	1540.1	21
57	20551	1541.2	10
57	20587	1544.204302234284	29
57	20611	1546.20430907031	19
57	20630	1547.91319668729	16
57	20646	1549.114364499574	11
57	20656	1549.921519117833	7
57	20676	1551.531407937144	15
57	20709	1554.239065349455	26
57	20755	1560.6	26
57	20774	1562.2	15
57	20785	1563.102684772878	8
57	20801	1564.310631953528	11
57	20814	1565.415418839488	10
57	20827	1566.321323352012	8
57	20838	1567.227487229009	8
57	20851	1568.133535639641	8
57	20861	1568.943113414274	7
57	20872	1569.850283084296	8
57	20906	1573.7	17
57	20925	1575.3	15
57	20942	1576.60055563328	12
57	20964	1578.407549787982	17
57	20992	1580.807878385122	23
57	21010	1582.209599004977	13
57	21021	1583.112419006803	8
57	21029	1583.71670574532	5
57	21048	1585.226020745782	14
57	21063	1586.327569475681	10
57	21077	1587.534681933514	11
57	21092	1588.641703680056	10
57	21118	1590.845974587917	21
57	21145	1594.9	9
57	21168	1596.9	19
57	21195	1599.203277269667	22
57	21203	1599.809450098355	5
57	21209	1600.011400944713	1
57	21236	1602.320935584485	22
57	21284	1609.1	31
57	21301	1610.7	15
57	21327	1613.107747814245	23
57	21346	1614.809132575243	16
57	21368	1616.812758345975	19
57	21386	1618.418401852351	15
57	21405	1620.120487037318	16
