version 2
run Join-67-20130520-16:32:54-32715
attr configname Join
attr datetime 20130520-16:32:54
attr experiment "\"Join\""
attr inifile omnetpp.ini
attr iterationvars $0=2048
attr iterationvars2 "$0=2048, $repetition=7"
attr measurement $0=2048
attr network Network
attr processid 32715
attr repetition 7
attr replication #7
attr resultdir results
attr runnumber 67
attr seedset 67

vector 67  Network.dyn_peer[0]  lookupHopsSig:vector  ETV
67	5872	21.7	26
67	5882	22.305304073269	5
67	5904	24.111712574773	17
67	5919	25.413761227268	12
67	5956	28.520010662676	30
67	5986	31.121894628807	25
67	6016	33.726921724028	25
67	6047	36.23119959262	24
67	6061	37.432496627956	11
67	6093	40.036435954214	25
67	6134	43.737664590614	36
67	6166	46.340374104195	25
67	6183	47.841392165108	14
67	6214	50.344578025999	24
67	6248	53.347364016171	29
67	6307	58.452834731657	50
67	6342	63.7	17
67	6365	65.7	19
67	6395	68.101979317807	23
67	6405	68.908932183252	7
67	6445	72.310703340149	33
67	6470	74.41414290676	20
67	6480	75.222796839718	7
67	6514	79.9	19
67	6537	81.9	19
67	6559	83.704324658319	17
67	6577	85.113935500873	13
67	6590	86.023638514723	8
67	6604	87.231951426975	11
67	6621	88.539404609615	12
67	6643	90.34495919641	17
67	6665	92.146367892398	17
67	6689	94.149395323769	19
67	6715	96.358323046521	21
67	6745	98.961225146379	25
67	6837	105	30
67	6855	106.5	14
67	6874	108.001710873644	14
67	6902	110.402099787785	23
67	6922	112.006213878811	15
67	6935	113.113397781218	10
67	6951	114.31739941989	11
67	6983	117.119035136785	27
67	7019	120.11937237982	29
67	7061	126.2	22
67	7089	128.7	24
67	7102	129.806069902055	10
67	7136	132.613185106358	27
67	7168	135.419732863628	27
67	7213	139.328154842827	38
67	7247	142.135360908907	27
67	7278	147.6	16
67	7341	153.2	55
67	7375	156.009517450323	27
67	7387	157.018017367522	9
67	7418	161.3	13
67	7438	163	16
67	7467	165.504442284742	24
67	7484	166.812135980668	12
67	7522	170.021939683098	31
67	7559	175.9	19
67	7595	179	30
67	7604	179.702839769788	6
67	7634	182.108906175512	23
67	7642	182.714779468203	5
67	7672	185.323206649384	25
67	7698	187.530973284559	21
67	7709	188.236752290337	6
67	7733	190.237442415452	19
67	7762	195.3	13
67	7797	198.3	29
67	7836	201.801672258942	34
67	7845	202.305904908444	4
67	7884	205.81564097926	34
67	7905	207.523364578822	16
67	7930	209.626687415725	20
67	7944	210.628233647661	9
67	7976	213.436420913702	27
67	8026	219	30
67	8055	221.6	25
67	8097	225.208683171086	35
67	8122	227.315741977191	20
67	8184	232.715934296755	53
67	8216	235.525593242167	27
67	8230	236.52684527028	9
67	8257	238.832985136668	22
67	8289	241.641068125302	27
67	8315	243.842238444259	21
67	8323	244.249257529244	3
67	8352	249.1	11
67	8389	252.3	31
67	8412	254.205926911446	18
67	8431	255.908847020742	16
67	8440	256.416848275187	4
67	8451	257.316933952086	8
67	8456	257.619820480412	2
67	8504	262.8	28
67	8513	263.6	7
67	8547	266.406911886911	27
67	8583	269.616117644346	31
67	8593	270.221832612809	5
67	8604	271.124545511657	8
67	8612	271.725909929599	5
67	8637	273.830683718654	20
67	8742	279.1	31
67	8778	281.4	22
67	8817	284.703101702877	32
67	8847	287.306222283343	25
67	8875	289.711474647944	23
67	8889	290.712888745747	9
67	8918	293.218964044793	24
67	8967	299.2	32
67	9001	302.1	28
67	9021	303.904529918376	17
67	9052	306.412370253472	24
67	9059	306.9221769402	4
67	9069	307.726393497084	7
67	9091	309.530118049167	17
67	9135	314.4	24
67	9166	317.2	27
67	9204	320.402027767973	31
67	9237	323.306624209205	28
67	9270	326.009725749317	26
67	9298	328.414454648363	23
67	9335	331.723704849131	32
67	9374	335.025608462254	32
67	9389	336.131198811	10
67	9424	339.239474711166	30
67	9469	343.149401577503	38
67	9517	348.8	28
67	9538	350.6	17
67	9563	352.701610314862	20
67	9580	354.010705738444	12
67	9601	355.913759875843	18
67	9616	357.015258362552	10
67	9641	359.117312003386	20
67	9666	361.218543119379	20
67	9691	363.320576310017	20
67	9715	365.323017033279	19
67	9763	371	30
67	9776	372	9
67	9787	372.908257370097	8
67	9799	373.914627901694	9
67	9823	375.921194675121	19
67	9882	381.9	39
67	9896	383	10
67	9910	384.008209561563	9
67	9918	384.616545089482	5
67	9927	385.320102840537	6
67	9939	386.129218494194	7
67	9944	386.438804162599	2
67	9971	388.741811942393	22
67	10054	397.2	52
67	10069	398.4	11
67	10090	400.108509104188	16
67	10110	401.91835758929	17
67	10147	405.021512857902	30
67	10169	406.831451787497	17
67	10204	409.939802854354	30
67	10244	413.345799249018	33
67	10271	415.64947325778	22
67	10305	418.45111854027	27
67	10318	419.552231188656	10
67	10355	422.65665997537	30
67	10381	424.857779534767	21
67	10405	426.859392093606	19
67	10446	432.1	21
67	10457	433.1	9
67	10470	434.00568379845	8
67	10486	435.412196333666	13
67	10501	436.519443562863	10
67	10514	437.619741833117	10
67	10538	439.62584521655	19
67	10557	441.135264857078	14
67	10577	442.741744095105	15
67	10602	444.846694765707	20
67	10622	446.453650123881	15
67	10662	452	20
67	10675	453.2	11
67	10697	455.008146487784	17
67	10729	457.808673540425	27
67	10752	459.710941230681	18
67	10766	460.71695461394	9
67	10793	463.02139136766	22
67	10830	468	20
67	10857	470.4	23
67	10880	472.305105145846	18
67	10912	475.110777432383	27
67	10932	476.715024147476	15
67	10959	479.01839404276	22
67	10980	480.723019685257	16
67	10991	481.628306630412	8
67	11049	486.634645080908	49
67	11108	493.9	39
67	11136	496.2	22
67	11167	498.907962693809	26
67	11201	501.913588201412	29
67	11238	505.018162440964	30
67	11257	506.524501531265	14
67	11276	508.034110407588	14
67	11305	510.542359662014	24
67	11336	515.5	15
67	11356	517.2	16
67	11363	517.70059104301	4
67	11374	518.406966654343	6
67	11411	521.711028624334	32
67	11426	522.816904081738	10
67	11433	523.324267891206	4
67	11454	525.024521759437	16
67	11479	527.128158653921	20
67	11509	529.728752146319	25
67	11596	534.3	23
67	11679	538.1	37
67	11722	540.004757876687	18
67	11761	543.511561626628	34
67	11770	544.012001987559	4
67	11807	547.313910485525	32
67	11829	549.119607529247	17
67	11868	552.427844553129	32
67	11912	556.234924149962	37
67	11949	559.543768723459	32
67	11980	562.044451672484	24
67	11992	563.048041081417	9
67	12016	565.051957336664	19
67	12057	570.1	21
67	12082	572.3	21
67	12103	574.000572248762	16
67	12122	575.710310728118	16
67	12126	575.911670632137	1
67	12143	577.221129365261	12
67	12157	578.229981407486	9
67	12213	585.9	39
67	12244	588.5	25
67	12267	590.406977532976	18
67	12287	592.010244015722	15
67	12312	594.118099010215	20
67	12329	595.621806847577	14
67	12360	598.123300228592	24
67	12376	599.530622390325	13
67	12396	601.136904225678	15
67	12418	602.94307099917	17
67	12439	604.648940348476	16
67	12460	606.358849761439	16
67	12506	610.362037532454	39
67	12691	617.7	37
67	12746	619.3	15
67	12837	622.208348224146	28
67	12849	622.711382552119	4
67	12871	623.917388651798	11
67	12892	625.623588374635	16
67	12912	627.229383953624	15
67	12932	630.5	5
67	12946	631.8	12
67	12975	634.109243381838	22
67	12984	634.8100864807	6
67	13013	637.31992283025	24
67	13042	639.827805361442	24
67	13062	641.434977702469	15
67	13129	647.33583125518	58
67	13140	648.043663157097	6
67	13148	648.648943287625	5
67	13162	649.851014781526	11
67	13203	653.354536768804	34
67	13251	658.8	28
67	13304	663.6	47
67	13315	664.304528985391	6
67	13326	665.204736959011	8
67	13330	665.41289400339	1
67	13357	667.722064445434	22
67	13391	670.527534174517	27
67	13475	677.4	34
67	13509	680.3	28
67	13545	683.502701990101	31
67	13583	686.707047659335	31
67	13609	688.908730004873	21
67	13647	692.115447558051	31
67	13682	695.216455789141	30
67	13703	698.6	6
67	13729	700.9	22
67	13760	703.605948138083	26
67	13785	705.712005429686	20
67	13789	705.919556365368	1
67	13813	707.929428226948	19
67	13841	710.137635304392	21
67	13848	710.644137659279	4
67	13871	712.552565408969	18
67	13902	717.5	15
67	13928	719.8	22
67	13941	720.706848532876	8
67	13969	723.114694975495	23
67	13995	725.321583224618	21
67	14010	726.425814230022	10
67	14024	727.632881314916	11
67	14051	729.936988588439	22
67	14114	733.3	13
67	14141	734.5	11
67	14177	736.001759279039	14
67	14191	736.509359959519	4
67	14226	738.913612831986	23
67	14241	740.019783373057	10
67	14266	742.127601425595	20
67	14303	745.428501214281	32
67	14327	747.431302373312	19
67	14349	749.23254496441	17
67	14478	756.1	41
67	14485	756.4	2
67	14515	757.602445773717	11
67	14557	759.511897971457	18
67	14585	760.616047199181	10
67	14640	763.921528769613	32
67	14648	764.324518553544	3
67	14665	765.834125046075	14
67	14682	767.140857548324	12
67	14706	769.150493378673	19
67	14723	770.450858801886	12
67	14733	771.255702345269	7
67	14767	775.8	18
67	14781	776.9	10
67	14801	778.506728594738	15
67	14823	780.307080591692	17
67	14833	781.111580440004	7
67	14861	783.511699991915	23
67	14877	784.711940340411	11
67	14898	786.418020344071	16
67	14921	788.31906129351	18
67	14942	790.027934540527	16
67	14985	796.5	25
67	15005	798.2	16
67	15033	800.608056098171	23
67	15058	802.710595114216	20
67	15084	804.918055706889	21
67	15102	806.327347450413	13
67	15129	808.631898283281	22
67	15185	815.9	39
67	15204	817.5	15
67	15218	818.507625582497	9
67	15238	820.107884549826	15
67	15256	821.71594796005	15
67	15277	823.417960258781	16
67	15311	826.223149989431	27
67	15329	827.825609391829	15
67	15346	829.130839439992	12
67	15369	831.034416608522	18
67	15389	832.641207774805	15
67	15400	833.549554395896	8
67	15441	837.051734139243	34
67	15468	839.352883333136	22
67	15509	844.1	21
67	15523	845.4	12
67	15560	848.506921699144	30
67	15580	850.110776508468	15
67	15604	852.111978311057	19
67	15641	855.420300599194	32
67	15662	857.121805087702	16
67	15685	859.028398345973	18
67	15712	863.1	11
67	15724	864	8
67	15763	867.501580571278	34
67	15780	868.811282096828	12
67	15787	869.31589316761	4
67	15807	870.923850306259	15
67	15844	874.028186919086	30
67	15871	876.333975299848	22
67	15905	879.334513585821	29
67	15945	884.2	22
67	15977	887.1	28
67	16001	889.10385292398	19
67	16025	891.106653074272	19
67	16055	893.710448979157	25
67	16090	896.619662058392	28
67	16115	898.723952447803	20
67	16124	899.432456601477	6
67	16137	900.340554052429	8
67	16158	902.049276547649	16
67	16183	904.153996219956	20
67	16214	906.863571470402	26
67	16248	909.868015288029	29
67	16284	912.877076144237	29
67	16351	918.786709420513	58
67	16387	923.8	18
67	16421	926.7	28
67	16447	928.905355807293	21
67	16471	930.908201359246	19
67	16478	931.416256855652	4
67	16507	933.918111932843	24
67	16522	935.023140358998	10
67	16545	936.931955749318	18
67	16574	939.434027437162	24
67	16638	943.4	14
67	16655	944.8	13
67	16684	947.302245982517	24
67	16702	948.702879997344	13
67	16745	952.40674853297	36
67	16784	955.912322852879	34
67	16825	959.415602818696	34
67	16854	961.921585669916	24
67	16895	965.424159852243	34
67	16923	969.1	11
67	16936	970.1	9
67	16949	971.208550368954	10
67	16958	971.915398930699	6
67	16973	973.023152925764	10
67	16998	975.126717897859	20
67	17027	977.629575508768	24
67	17067	981.036045918378	33
67	17081	982.036409772207	9
67	17094	983.14289572631	10
67	17110	984.34812025641	11
67	17121	985.254636897301	8
67	17149	987.663506470176	23
67	17162	988.568421047062	8
67	17225	994.1	21
67	17248	996.1	19
67	17272	998.107163191919	19
67	17298	1000.311419895355	21
67	17315	1001.818081016825	14
67	17338	1003.71853877485	18
67	17347	1004.222119374388	4
67	17370	1006.129124976732	18
67	17399	1008.629256807859	24
67	17557	1015	30
67	17585	1015.8	7
67	17647	1018.508154256674	26
67	17683	1020.110844700745	15
67	17701	1020.815669572806	6
67	17721	1022.422991190155	15
67	17735	1023.627978278331	11
67	17797	1029.031127649869	53
67	17828	1031.737083548528	26
67	17845	1033.044577950112	12
67	17902	1036.9	9
67	17957	1039.4	24
67	18033	1042.50082880221	30
67	18095	1045.4017890988	28
67	18147	1047.811085032353	23
67	18203	1050.618613877368	27
67	18229	1052.828402283507	21
67	18248	1054.335941552013	14
67	18272	1056.342483245449	19
67	18321	1062.9	29
67	18349	1065.4	24
67	18356	1065.909181652348	4
67	18366	1066.517096901472	5
67	18391	1068.618120931364	20
67	18436	1074.5	25
67	18440	1074.8	2
67	18466	1077.008916959455	21
67	18496	1079.61572847017	25
67	18523	1081.924008135703	22
67	18541	1083.331127014689	13
67	18567	1085.536693714196	21
67	18611	1090.7	27
67	18630	1092.3	15
67	18652	1094.108495177689	17
67	18692	1097.710226795244	35
67	18716	1099.712231089765	19
67	18758	1103.313324681365	35
67	18776	1104.722571606585	13
67	18787	1105.62266267871	8
67	18812	1107.731487310668	20
67	18829	1109.036266862747	12
67	18860	1111.743690564522	26
67	18876	1112.951483567155	11
67	18897	1114.655818506475	16
67	18927	1117.263721598491	25
67	18977	1123.1	31
67	18984	1123.7	5
67	19000	1124.906836671999	11
67	19024	1126.910357717971	19
67	19049	1129.016515056373	20
67	19064	1130.119245048878	10
67	19088	1132.127078684193	19
67	19129	1138.4	24
67	19179	1142.9	44
67	19208	1145.407713693908	24
67	19246	1148.60981081334	31
67	19305	1153.912052098736	52
67	19321	1155.121558654887	11
67	19342	1156.828278332062	16
67	19359	1158.134018495465	12
67	19376	1159.639291355379	14
67	19439	1166.1	41
67	19444	1166.5	3
67	19468	1168.506700923931	19
67	19494	1170.716357557877	21
67	19519	1172.823721909288	20
67	19537	1174.224133797786	13
67	19547	1175.026100410413	7
67	19557	1175.830201070738	7
67	19568	1176.535329151685	6
67	19582	1177.738645272434	11
67	19619	1181.9	19
67	19638	1183.5	15
67	19647	1184.006857803622	4
67	19663	1185.41187646073	13
67	19685	1187.216097758309	17
67	19705	1188.819981937558	15
67	19718	1189.928973145592	10
67	19738	1191.529940090856	15
67	19771	1194.233568392332	26
67	19820	1200.9	29
67	19858	1204.2	32
67	19899	1207.906938443446	36
67	19935	1210.913109469524	29
67	19972	1214.0157102678	30
67	20011	1217.522305431841	34
67	20052	1221.02394199413	34
67	20092	1226.3	23
67	20103	1227.3	9
67	20123	1228.907701756809	15
67	20149	1231.113990528743	21
67	20188	1234.422007299239	32
67	20216	1236.82548863414	23
67	20262	1242.6	26
67	20284	1244.5	18
67	20311	1246.807452459256	22
67	20337	1249.007932572327	21
67	20361	1251.016236577971	19
67	20365	1251.21769082652	1
67	20395	1253.818672384713	25
67	20469	1261.2	52
67	20490	1263	17
67	20515	1265.101423481469	20
67	20524	1265.809409506538	6
67	20553	1268.118229234687	22
67	20579	1270.324377410177	21
67	20605	1272.527154290983	21
67	20643	1278.1	21
67	20688	1282.1	39
67	20721	1285.002257261527	28
67	20736	1286.102631453663	10
67	20744	1286.70791368786	5
67	20753	1287.408063274826	6
67	20764	1288.113492734447	6
67	20801	1291.419666185212	32
67	20835	1294.221101007152	27
67	20863	1299.1	11
67	20884	1300.9	17
67	20912	1303.309616611199	23
67	20956	1307.117036827867	37
67	21001	1311.017081692362	38
67	21009	1311.618678815608	5
67	21046	1314.72351125764	30
67	21075	1317.224452267724	24
67	21134	1322.329653681171	50
67	21166	1325.136542985128	27
67	21189	1327.037887276926	18
67	21205	1328.244126063103	11
67	21250	1332.146893689648	38
67	21288	1335.552936950902	33
67	21333	1339.453957888035	38
67	21376	1344.4	24
67	21381	1344.8	3
67	21401	1346.407731120404	15
67	21433	1349.215602018837	27
67	21458	1351.317598278314	20
67	21478	1352.917784267758	15
67	21499	1354.626169986767	16
67	21518	1356.130534474852	14
67	21536	1357.738883475633	15
67	21558	1359.454428308084	16
67	21614	1365.7	37
67	21621	1366.1	3
67	21631	1366.900884985965	7
67	21643	1367.910095274242	9
67	21667	1369.916453363863	19
67	21694	1372.020800394241	20
67	21709	1373.328785101354	12
67	21764	1379.8	38
67	21792	1382.1	22
67	21826	1385.108269862977	29
67	21836	1385.909258079388	7
67	21847	1386.619036106335	6
67	21866	1388.119170402822	14
67	21911	1394.5	25
67	21942	1397.3	27
67	21963	1399.009054097095	16
67	21979	1400.216847817101	11
67	21996	1401.725358500598	14
67	22010	1402.728837777374	9
67	22031	1404.431518048448	16
67	22080	1411.2	32
67	22109	1413.8	25
67	22122	1414.708301347317	8
67	22134	1415.712374985753	9
67	22147	1416.612614541151	8
67	22184	1421.9	19
67	22195	1422.7	7
67	22240	1426.607179157927	38
67	22251	1427.512450480439	8
67	22282	1430.019087645263	24
67	22309	1432.319311556849	22
67	22323	1433.523756299251	11
67	22336	1434.431101907646	8
67	22358	1436.239906242879	17
67	22427	1442.7	27
67	22444	1444.1	13
67	22483	1447.604333044681	34
67	22497	1448.614328124124	9
67	22533	1453.8	18
67	22573	1457.3	34
67	22595	1459.104628044257	17
67	22621	1461.310974821198	21
67	22638	1462.611151466098	12
67	22658	1464.214078723598	15
67	22681	1466.120189136996	18
67	22704	1468.028889528418	18
67	22724	1469.838238163493	17
67	22749	1471.947510870069	20
67	22764	1473.050790382093	10
67	22780	1474.253060174607	11
67	22809	1476.75499401563	24
67	22843	1479.760160582993	29
67	22868	1481.861012257824	20
67	22883	1482.965927744062	10
67	22941	1487	10
67	22988	1489.2	21
67	23016	1490.403345065324	11
67	23058	1492.206041205096	17
67	23126	1495.209204164914	29
67	23184	1497.910444538379	26
67	23242	1500.415631372742	24
67	23260	1501.423594754535	9
67	23293	1504.131205906086	26
67	23342	1508.437359917965	42
67	23375	1511.341531183929	28
67	23431	1515.9	19
67	23451	1517.6	16
67	23472	1519.303067930238	16
67	23489	1520.606619757278	12
67	23546	1525.710786014247	50
67	23572	1527.913312661635	21
67	23674	1536.922922880895	89
67	23786	1543.4	34
67	23809	1545.4	19
67	23836	1547.709864137074	22
67	23850	1548.717175639661	9
67	23864	1549.92513745721	11
67	23876	1550.728387937774	7
67	23923	1554.834581338544	40
67	23943	1556.442521473574	15
67	23954	1557.347165905928	8
67	23968	1558.347564384671	9
67	23977	1559.05722716557	6
67	23998	1560.758151309612	16
67	24029	1563.458760290086	26
67	24045	1564.659717854848	11
67	24081	1569.8	18
67	24094	1570.8	9
67	24105	1571.706142266651	8
67	24122	1573.011522244482	12
67	24196	1579.619901444198	65
67	24209	1580.526367770019	8
67	24235	1582.727476547281	21
67	24268	1585.630320774577	28
67	24290	1587.439300859921	17
67	24314	1589.444080715008	19
67	24337	1591.350993576493	18
67	24434	1596.7	27
67	24453	1597.6	8
67	24515	1600.300984715505	26
67	24542	1602.20260891719	18
67	24557	1603.507505776283	12
67	24574	1604.810727375656	12
67	24599	1606.914055516029	20
67	24632	1609.815136929716	28
67	24661	1612.120170759589	22
67	24676	1613.425258037343	12
67	24699	1615.326968800523	18
67	24732	1618.029358531031	26
67	24738	1618.437220222206	3
67	24767	1623.1	11
67	24795	1625.6	24
67	24831	1628.609140166882	29
67	24861	1631.209937386677	25
67	24891	1633.813843385755	25
67	24924	1636.520688708106	26
67	24936	1637.530086030203	9
67	24969	1640.231615459012	26
67	24987	1641.834821580146	15
67	25047	1648	40
67	25085	1651.5	34
67	25105	1653.102679549334	15
67	25144	1656.410774445335	32
67	25182	1659.812958552622	33
67	25221	1663.121601051817	32
67	25265	1666.927513997252	37
67	25291	1671.1	11
67	25314	1673.1	19
67	25331	1674.406691440679	12
67	25355	1676.408557309966	19
67	25370	1677.708586275353	12
67	25385	1678.8086673919	10
67	25396	1679.710775239279	8
67	25411	1680.817684968721	10
67	25462	1684.6	6
67	25495	1686.1	14
67	25551	1688.602822974794	24
67	25657	1693.406431116319	47
67	25718	1697.615754535982	41
67	25769	1703.1	31
67	25794	1705.3	21
67	25820	1707.509940257263	21
67	25838	1708.914420902789	13
67	25864	1711.115095492719	21
67	25888	1713.118996279832	19
67	25912	1715.122578843204	19
67	25941	1719.4	14
67	25966	1721.6	21
67	25982	1722.800669534816	11
67	26005	1724.707830010477	18
67	26014	1725.412516251461	6
67	26025	1726.119431007672	6
67	26039	1727.322683986117	11
67	26064	1729.429252933409	20
67	26080	1730.632404348688	11
67	26106	1732.839585240183	21
67	26139	1737.5	15
67	26154	1738.7	11
67	26166	1739.707356557133	9
67	26186	1741.314731271208	15
67	26206	1742.920830972678	15
67	26215	1743.625999333817	6
67	26237	1745.435127286892	17
67	26257	1747.043255412093	15
67	26374	1753.8	38
67	26461	1757.9	40
67	26494	1760.60833586954	26
67	26503	1761.316457487709	6
67	26524	1763.016996951716	16
67	26555	1765.723337468875	26
67	26568	1766.627565166945	8
67	26582	1767.827606158456	11
67	26614	1770.435082946125	25
67	26626	1771.443488080593	9
67	26686	1776.652668767644	51
67	26726	1782	20
67	26733	1782.6	5
67	26758	1784.707141237931	20
67	26789	1787.412671285345	26
67	26814	1789.522226296864	20
67	26834	1791.126052336458	15
67	26859	1793.233352473834	20
67	26895	1796.236318415961	29
67	26921	1798.438948112555	21
67	26945	1800.439345482872	19
67	26969	1802.44747022154	19
67	26998	1804.953459199906	24
67	27056	1809.6	16
67	27072	1810.9	12
67	27083	1811.805543955259	8
67	27106	1813.707329873858	18
67	27130	1815.71581615022	19
67	27178	1819.917577642873	41
67	27194	1821.119640196759	11
67	27232	1826.1	21
67	27250	1827.8	16
67	27266	1829.001007963158	11
67	27285	1830.501744580417	14
67	27329	1834.302121917429	37
67	27350	1836.004936928107	16
67	27366	1837.411928499921	13
67	27386	1839.019369432996	15
67	27405	1840.527636530178	14
67	27425	1842.128254297592	15
67	27474	1848.9	29
67	27491	1850.3	13
67	27500	1851.00519340665	6
67	27526	1853.208702838673	21
67	27550	1855.211374744394	19
67	27566	1856.414832685415	11
67	27574	1857.02087456027	5
67	27595	1858.723674289453	16
67	27635	1864.2	22
67	27652	1865.8	15
67	27695	1869.506903953563	36
67	27711	1870.715589991599	11
67	27731	1872.322400355393	15
67	27749	1873.928777749382	15
67	27792	1877.631000987793	36
67	27838	1882.9	29
67	27859	1884.7	17
67	27873	1885.904923771619	11
67	27885	1886.710289459951	7
67	27896	1887.520765837202	7
67	27941	1891.422235318607	38
67	27952	1892.122287575747	6
67	27965	1893.223562292999	10
67	28062	1898.6	26
67	28093	1900	13
67	28149	1902.502284189434	24
67	28181	1903.912157863182	13
67	28200	1904.716486034837	7
67	28230	1907.322518405112	25
67	28249	1908.825727794399	14
67	28302	1915.6	36
67	28306	1915.9	2
67	28335	1918.207976501057	22
67	28371	1921.414313735325	31
67	28381	1922.021917349657	5
67	28402	1923.926482703302	18
67	28431	1926.235435559631	22
67	28448	1927.743556509257	14
67	28490	1932.2	22
67	28520	1934.9	26
67	28530	1935.705353673098	7
67	28553	1937.613076851831	18
67	28580	1939.920667841739	22
67	28607	1942.022957226782	20
67	28634	1946.9	9
67	28664	1949.6	26
67	28690	1951.805416016052	21
67	28706	1953.008027615139	11
67	28734	1955.417454372753	23
67	28779	1959.322567389112	38
67	28806	1961.627305538936	22
67	28825	1963.129957803741	14
67	28891	1970.4	44
67	28918	1972.8	23
67	28968	1977.202200294623	43
67	28984	1978.407203620792	11
67	28993	1979.107440289478	6
67	29010	1980.413326820717	12
67	29030	1982.020472899989	15
67	29044	1983.22105916402	11
67	29059	1984.327530207253	10
67	29129	1989.5	15
67	29180	1991.8	22
67	29236	1994.100933994597	22
67	29288	1996.509940510652	23
67	29338	2000.013052684247	34
67	29363	2002.120473140342	20
67	29390	2004.428554808177	22
67	29409	2008.4	4
67	29430	2010.2	17
67	29444	2011.407713834953	11
67	29463	2012.914187514288	14
67	29473	2013.720415772506	7
67	29497	2015.730032660894	19
67	29512	2016.833278314746	10
67	29537	2018.933499768746	20
67	29548	2019.838070982633	8
67	29629	2024	20
67	29654	2025.2	11
67	29702	2027.307900098706	20
67	29728	2028.413419530873	10
67	29748	2029.222625013668	7
67	29762	2030.225864793575	9
67	29777	2031.527832986107	12
67	29788	2032.232772051622	6
67	29822	2035.242296755211	29
67	29845	2037.143243937764	18
67	29879	2041.6	16
67	29899	2043.3	16
67	29915	2044.501150377935	11
67	29951	2047.701589862692	31
67	29970	2049.201983440983	14
67	29997	2051.509416004245	22
67	30028	2054.01144351446	24
67	30063	2057.11714412754	30
67	30090	2059.421007447189	22
67	30111	2061.122273988236	16
67	30164	2067.4	34
67	30182	2068.9	14
67	30206	2070.905160327525	19
67	30238	2073.707722858545	27
67	30268	2076.115314436832	23
67	30302	2079.122885397784	29
67	30323	2080.826852700113	16
67	30356	2083.730780191932	28
67	30429	2090.032847950456	62
67	30446	2091.535617253996	14
67	30480	2094.340199246552	27
67	30510	2096.948537925687	25
67	30543	2099.856451348888	28
67	30572	2102.162859798276	22
67	30611	2105.671502049585	34
67	30645	2109.6	16
67	30661	2110.9	12
67	30695	2113.901123057121	29
67	30707	2114.704501154054	7
67	30742	2117.807616159593	30
67	30780	2121.013010029288	31
67	30819	2124.321012766338	32
67	30846	2126.625954767577	22
67	30886	2130.027369852636	33
67	30910	2132.031268513944	19
67	30947	2135.339282386594	32
67	30975	2139.2	12
67	31001	2141.5	22
67	31025	2143.504386346773	19
67	31058	2146.206865243615	26
67	31091	2149.112999187825	28
67	31105	2150.120234866173	9
67	31150	2156.8	28
67	31167	2158.4	15
67	31186	2160.10202672735	16
67	31214	2162.703488197726	25
67	31234	2164.50660599046	17
67	31274	2168.312390017864	37
67	31289	2169.617737383833	12
67	31315	2172.027133427851	23
67	31343	2174.629960289625	25
