file 20210 1369060334                                           
version 2
run Join-23-20130520-16:32:14-32715
attr configname Join
attr datetime 20130520-16:32:14
attr experiment "\"Join\""
attr inifile omnetpp.ini
attr iterationvars $0=128
attr iterationvars2 "$0=128, $repetition=3"
attr measurement $0=128
attr network Network
attr processid 32715
attr repetition 3
attr replication #3
attr resultdir results
attr runnumber 23
attr seedset 23

vector 23  Network.dyn_peer[0]  lookupHopsSig:vector  ETV
23	441 19769 631 8878 20.3 778.835233992756 818 1 17 3963 25021
