version 2
run Join-29-20130520-16:32:15-32715
attr configname Join
attr datetime 20130520-16:32:15
attr experiment "\"Join\""
attr inifile omnetpp.ini
attr iterationvars $0=128
attr iterationvars2 "$0=128, $repetition=9"
attr measurement $0=128
attr network Network
attr processid 32715
attr repetition 9
attr replication #9
attr resultdir results
attr runnumber 29
attr seedset 29

vector 29  Network.dyn_peer[0]  lookupHopsSig:vector  ETV
29	588	20.618823762975	6
29	594	21.028440958591	3
29	608	22.031257602676	9
29	626	26	0
29	631	26.4	3
29	641	27.204541930931	7
29	653	28.014415561077	7
29	662	28.723191768151	6
29	669	29.231680447262	4
29	684	30.340685339952	10
29	706	34.4	4
29	709	34.6	1
29	715	34.907441264569	2
29	721	35.312278683303	3
29	725	35.520510127035	1
29	730	35.824665021747	2
29	737	36.131040541238	2
29	758	40.6	6
29	763	41	3
29	769	41.403803057174	3
29	782	42.310415501677	8
29	790	42.911437510388	5
29	797	43.411491595044	4
29	802	43.721012101825	2
29	812	44.321296456991	5
29	838	48.8	8
29	847	49.6	7
29	859	50.401364713751	7
29	863	50.605456418972	1
29	869	51.013026782588	3
29	879	51.814197397457	7
29	901	54.4	4
29	908	55	5
29	914	55.407587154624	3
29	919	55.709737196089	2
29	926	56.009988887956	2
29	935	56.71088607715	6
29	939	56.917038044522	1
29	948	57.626169280889	6
29	973	60.7	7
29	979	61.2	4
29	984	61.501462977633	2
29	988	61.704281230009	1
29	995	62.011501822379	2
29	1001	62.412269957676	3
29	1009	63.012777807258	5
29	1016	63.517737789141	4
29	1022	63.918536699233	3
29	1032	64.52135303241	5
29	1036	64.723567920343	1
29	1041	65.02417418745	2
29	1064	68.6	6
29	1071	69.2	5
29	1078	69.705107996067	4
29	1087	70.207731879704	4
29	1098	71.116990978304	8
29	1104	71.518459301021	3
29	1113	72.02234347248	4
29	1121	72.623775605687	5
29	1130	73.329009856448	6
29	1145	74.438526919278	10
29	1152	74.948387767485	4
29	1167	76.055452899873	10
29	1176	76.759671719943	6
29	1185	77.462599181658	6
29	1212	80.9	9
29	1227	82.1	11
29	1235	82.705783629878	5
29	1245	83.506067209213	7
29	1257	84.311377431884	7
29	1263	84.714726179478	3
29	1273	85.51510374977	7
29	1282	86.021779373895	4
29	1311	91.1	11
29	1323	92	8
29	1331	92.602966882986	5
29	1337	93.012386937899	3
29	1346	93.615188076501	5
29	1356	94.220295934751	5
29	1381	98.7	7
29	1385	99	2
29	1399	100.006028912845	9
29	1407	100.608531456876	5
29	1416	101.314649059462	6
29	1424	101.920232314303	5
29	1446	104.4	4
29	1456	105.3	8
29	1469	106.208706091353	8
29	1480	107.116664137795	8
29	1496	108.318414020162	11
29	1505	109.024267501315	6
29	1512	109.526767619546	4
29	1521	110.034431205741	4
29	1546	114.7	7
29	1552	115.2	4
29	1559	115.70587822908	4
29	1571	116.508827907265	7
29	1577	116.913123035006	3
29	1584	117.414671937084	4
29	1589	117.723086812166	2
29	1593	117.926400376062	1
29	1616	120.5	5
29	1629	121.600167378887	10
29	1640	122.302151623155	6
29	1647	122.80907267815	4
29	1663	124.014414235977	11
29	1670	124.52058996969	4
29	1675	124.824887570211	2
29	1682	125.334472749955	4
29	1695	126.237395803476	8
29	1705	127.040797595734	7
29	1712	127.544324795143	4
29	1733	130.4	4
29	1738	130.8	3
29	1744	131.203747193145	3
29	1753	131.911358814397	6
29	1761	132.317141390237	3
29	1770	133.025147457983	6
29	1800	137.2	12
29	1805	137.6	3
29	1816	138.302953114444	6
29	1823	138.807575192488	4
29	1827	139.014524531037	1
29	1837	139.816560974599	7
29	1848	140.524386221438	6
29	1856	141.126746069392	5
29	1870	142.129680633511	9
29	1896	146.8	8
29	1901	147.2	3
29	1908	147.708824100613	4
29	1916	148.115154909298	3
29	1922	148.523562244334	3
29	1943	150.230152543011	16
29	1951	150.832617811426	5
29	1956	151.136340801681	2
29	1964	151.74265285216	5
29	1989	154.7	7
29	1997	155.4	6
29	2003	155.808764909435	3
29	2013	156.417883901278	5
29	2023	157.221520546403	7
29	2031	157.823729985214	5
29	2053	160.4	4
29	2058	160.8	3
29	2065	161.308875174843	4
29	2071	161.717148563793	3
29	2081	162.326057644589	5
29	2086	162.631875264884	2
29	2090	162.8355025002	1
29	2097	163.342410657679	4
29	2123	166.8	8
29	2130	167.4	5
29	2134	167.600939636407	1
29	2142	168.006640468132	3
29	2148	168.411982902534	3
29	2155	168.920391835748	4
29	2162	169.427024615037	4
29	2172	170.033656403471	5
29	2176	170.239358934862	1
29	2195	174.1	1
29	2199	174.306029573439	1
29	2207	174.907596761588	5
29	2218	175.809070414138	8
29	2228	176.414446581668	5
29	2235	176.915175686905	4
29	2240	177.221400395129	2
29	2249	177.830784046966	5
29	2255	178.036155853955	1
29	2262	178.541985455466	4
29	2284	182.6	6
29	2290	183.1	4
29	2296	183.503557310639	3
29	2305	184.009904252853	4
29	2310	184.311339927812	2
29	2317	184.8184046927	4
29	2325	185.422430517831	5
29	2330	185.731783900092	2
29	2350	188.2	2
29	2362	189.3	10
29	2367	189.602263963923	2
29	2380	190.506808058726	8
29	2393	191.612044838046	10
29	2401	192.016827949651	3
29	2408	192.52002633495	4
29	2414	192.924468738245	3
29	2419	193.231534984958	2
29	2424	193.532475095715	2
29	2452	197	10
29	2461	197.8	7
29	2470	198.301544622401	4
29	2476	198.709561960894	3
29	2486	199.51585946723	7
29	2496	200.121614059713	5
29	2503	200.621864122136	4
29	2510	201.123388464488	4
29	2518	201.725690447383	5
29	2538	204.4	4
29	2545	205	5
29	2560	206.100485519075	10
29	2571	207.005152192266	8
29	2582	207.906784454722	8
29	2593	208.612145974007	6
29	2600	209.112302492502	4
29	2614	210.12002031013	9
29	2635	214.3	3
29	2642	214.9	5
29	2647	215.202706638835	2
29	2655	215.809014896265	5
29	2663	216.212667031305	3
29	2669	216.620585921067	3
29	2675	217.026468463752	3
29	2683	217.631148574505	5
29	2688	217.937982781745	2
29	2698	218.539917858537	5
29	2723	222.7	7
29	2734	223.7	9
29	2738	223.903375104935	1
29	2747	224.307695454961	3
29	2753	224.709219156246	3
29	2759	225.109933023344	3
29	2766	225.611908077584	4
29	2776	226.217085450413	5
29	2798	230.4	4
29	2809	231.4	9
29	2822	232.30274884189	8
29	2831	233.011285980669	6
29	2841	233.815911353746	7
29	2852	234.517599766485	6
29	2859	235.021512010092	4
29	2867	235.623512987495	5
29	2871	235.828198094706	1
29	2895	238.6	6
29	2902	239.2	5
29	2915	240.102558378612	8
29	2927	241.108150340872	9
29	2933	241.511157380066	3
29	2943	242.119006275437	5
29	2953	242.92744201956	7
29	2959	243.335282470701	3
29	2966	243.835781362562	4
29	2975	244.336888234163	4
29	2981	244.746574302943	3
29	2989	245.350885048295	5
29	3008	248.1	1
29	3014	248.6	4
29	3018	248.805391958721	1
29	3022	249.011547739372	1
29	3027	249.31790201417	2
29	3031	249.524737381856	1
29	3035	249.734209326128	1
29	3055	252.5	5
29	3059	252.8	2
29	3069	253.603641450391	7
29	3078	254.103997378174	4
29	3086	254.710004561649	5
29	3095	255.413854430111	6
29	3102	255.914272442818	4
29	3120	258.3	3
29	3128	259	6
29	3133	259.303115100476	2
29	3144	260.007428702788	6
29	3151	260.50927662691	4
29	3157	260.913699114314	3
29	3165	261.520518100839	5
29	3180	262.624896744158	10
29	3189	263.330748797379	6
29	3201	264.134452489294	7
29	3209	264.735393791157	5
29	3220	265.635447180646	8
29	3239	268.1	1
29	3246	268.7	5
29	3259	269.806023559109	10
29	3266	270.111909866295	2
29	3270	270.313815201173	1
29	3294	274.6	6
29	3298	274.9	2
29	3310	275.90696335395	9
29	3318	276.31237074304	3
29	3329	277.220039523202	8
29	3336	277.72824353984	4
29	3361	280.7	7
29	3365	281	2
29	3371	281.403410648433	3
29	3376	281.707698895642	2
29	3388	282.509380220029	7
29	3393	282.811502484202	2
29	3398	283.116787538491	2
29	3405	283.619286549014	4
29	3413	284.022085375186	3
29	3418	284.323417498991	2
29	3444	288.8	8
29	3447	289	1
29	3458	289.900880875077	8
29	3465	290.203640893408	2
29	3471	290.605275510169	3
29	3480	291.222683508201	5
29	3507	294.9	9
29	3517	295.8	8
29	3525	296.209040854733	3
29	3530	296.510564594761	2
29	3537	297.010867553933	4
29	3546	297.711905621276	6
29	3556	298.314198150541	5
29	3564	298.920010399792	5
29	3572	299.525864091002	5
29	3596	302.6	6
29	3605	303.4	7
29	3609	303.600640388953	1
29	3619	304.21021927997	5
29	3623	304.417466846993	1
29	3647	308.6	6
29	3654	309.2	5
29	3666	310.009072727721	7
29	3671	310.310661711973	2
29	3679	310.919673320726	5
29	3686	311.424300764762	4
29	3697	312.13255368794	6
29	3702	312.442000140861	2
29	3709	312.947977381061	4
29	3715	313.352711434584	3
29	3722	313.862695222092	4
29	3729	314.168689372639	2
29	3738	314.869802035926	6
29	3759	318.4	4
29	3763	318.7	2
29	3769	319.101718953768	3
29	3779	319.908013515068	7
29	3786	320.214091960904	2
29	3798	321.216304169466	9
29	3810	322.01925943872	7
29	3838	327	10
29	3842	327.3	2
29	3856	328.307349448711	9
29	3861	328.608976474697	2
29	3868	329.112880847751	4
29	3875	329.614235354788	4
29	3879	329.818018611185	1
29	3887	330.227579072122	3
29	3892	330.535792130848	2
29	3913	334.3	3
29	3921	334.90234758652	5
29	3930	335.609227176405	6
29	3942	336.412467948907	7
29	3953	337.321166212568	8
29	3964	338.023668258939	6
29	3987	342.5	5
29	3996	343.204827599786	6
29	4002	343.612611366074	3
29	4012	344.215689805158	5
29	4016	344.421498402728	1
29	4020	344.630988991284	1
29	4027	345.038619907933	3
29	4033	345.352642657048	2
29	4040	345.858038198178	4
29	4064	348.6	6
29	4073	349.4	7
29	4080	349.908692149268	4
29	4090	350.514875566351	5
29	4115	354.7	7
29	4118	354.9	1
29	4126	355.508110310123	5
29	4132	355.811882220678	2
29	4143	356.51847996713	6
29	4168	360.7	7
29	4178	361.6	8
29	4186	362.003068982146	3
29	4192	362.405173807027	3
29	4213	366.3	3
29	4223	367.2	8
29	4236	368.109871689891	8
29	4246	368.914295722387	7
29	4257	369.823945092736	8
29	4269	370.628410944882	7
29	4274	370.933257542619	2
29	4280	371.342029731768	3
29	4284	371.549622951187	1
29	4294	372.155069495606	5
29	4314	376.2	2
29	4321	376.8	5
29	4332	377.702049633893	8
29	4340	378.104104026888	3
29	4346	378.51305857515	3
29	4354	379.119121665258	5
29	4359	379.428178911283	2
29	4369	380.028840932936	5
29	4392	384.5	5
29	4403	385.5	9
29	4409	385.905165764759	3
29	4420	386.61170143664	6
29	4427	387.118648568195	4
29	4435	387.72125088607	5
29	4445	388.324805567183	5
29	4456	389.131171045146	7
29	4466	389.936740120536	7
29	4489	392.5	5
29	4501	393.6	10
29	4514	394.503145785541	8
29	4521	395.012292893747	4
29	4529	395.616083758884	5
29	4540	396.318396789495	6
29	4547	396.820177356605	4
29	4569	400.4	4
29	4578	401.2	7
29	4590	402.008359687118	7
29	4599	402.71554553724	6
29	4609	403.524914325809	7
29	4620	404.232782962264	6
29	4630	405.037632248729	7
29	4637	405.5429522728	4
29	4650	406.449079982704	8
29	4677	410.9	9
29	4696	412.5	15
29	4704	413.10106106644	5
29	4718	414.103586203255	9
29	4728	414.909893277498	7
29	4732	415.119079914443	1
29	4740	415.728528061426	5
29	4749	416.236579954915	4
29	4755	416.642427758201	3
29	4761	417.045835243993	3
29	4768	417.55536261237	4
29	4773	417.858441677636	2
29	4798	420.8	8
29	4808	421.7	8
29	4822	422.708503889921	9
29	4832	423.511367977093	7
29	4838	423.914144699705	3
29	4846	424.322805137248	3
29	4850	424.524740741092	1
29	4875	428.7	7
29	4881	429.2	4
29	4894	430.109146847419	8
29	4907	431.216507452106	10
29	4914	431.725243288177	4
29	4923	432.229932315851	4
29	4929	432.631136813336	3
29	4934	432.940407135814	2
29	4941	433.449789362311	4
29	4946	433.75073244338	2
29	4950	433.960040360329	1
29	4956	434.166717068411	1
29	4961	434.474780631633	2
29	4982	438.4	4
29	4993	439.4	9
29	5007	440.403913308894	9
29	5011	440.60701384134	1
29	5020	441.314203982759	6
29	5033	442.217160402427	8
29	5039	442.61787446208	3
29	5044	442.919602581012	2
29	5067	446.5	5
29	5074	447.1	5
29	5082	447.707784042896	5
29	5096	448.714620411407	9
29	5103	449.217767025522	4
29	5115	450.022215253439	7
29	5121	450.422772879903	3
29	5176	454.4	4
29	5191	455	5
29	5202	455.908555370541	8
29	5210	456.217231307701	2
29	5218	456.819544631215	5
29	5224	457.222538066669	3
29	5231	457.730196950311	4
29	5238	458.039308368532	2
29	5246	458.645159846566	5
29	5269	462.6	6
29	5278	463.4	7
29	5291	464.300171301872	8
29	5303	465.301932445324	9
29	5316	466.206134154931	8
29	5323	466.713989731438	4
29	5333	467.523108951304	7
29	5344	468.230465777331	6
29	5351	468.735178486065	4
29	5360	469.435635457239	6
29	5372	470.242259659569	7
29	5382	471.045843947122	7
29	5391	471.752117073351	6
29	5405	472.754578655887	9
29	5417	473.759622143193	9
29	5444	477	10
29	5452	477.7	6
29	5463	478.402764039256	6
29	5472	479.109227017268	6
29	5481	479.813296379022	6
29	5490	480.314666125652	4
29	5495	480.615676950883	2
29	5499	480.824785333721	1
29	5510	481.729249773829	8
29	5517	482.03196195364	2
29	5524	482.534390444327	4
29	5531	483.039101030435	4
29	5539	483.644146583296	5
29	5548	484.150112690785	4
29	5557	484.858726112825	6
29	5579	488.4	4
29	5585	488.9	4
29	5600	490.001289312485	10
29	5608	490.60557714614	5
29	5613	490.914123201292	2
29	5618	491.217557044002	2
29	5623	491.520138992775	2
29	5646	494.5	5
29	5654	495.2	6
29	5667	496.108178668871	8
29	5677	496.917027322832	7
29	5686	497.619379088725	6
29	5698	498.424016266232	7
29	5720	502.4	4
29	5725	502.8	3
29	5730	503.108769973588	2
29	5746	504.311556517504	11
29	5752	504.717204760714	3
29	5763	505.618392944501	8
29	5793	509.2	12
29	5800	509.8	5
29	5812	510.609252771409	7
29	5824	511.610199899591	9
29	5833	512.016733064712	3
29	5840	512.52017827515	4
29	5846	512.927164829596	3
29	5856	513.732903549523	7
29	5878	516.4	4
29	5885	517	5
29	5902	518.307537088291	12
29	5913	519.210542404015	8
29	5925	520.018786688259	7
29	5931	520.421545404301	3
29	5939	521.028443669216	5
29	5958	524.4	4
29	5962	524.7	2
29	5968	525.109828623777	3
29	5981	526.013799139386	8
29	5986	526.321113044511	2
29	5992	526.726493003962	3
29	6001	527.43574919054	6
29	6007	527.837541456112	3
29	6016	528.346571212663	4
29	6021	528.653031914146	2
29	6044	532.5	5
29	6050	533	4
29	6057	533.506373759508	4
29	6066	534.014352276739	4
29	6077	534.922710067107	8
29	6098	538.3	3
29	6106	539	6
29	6114	539.605147667995	5
29	6122	540.01208820752	3
29	6128	540.415171421602	3
29	6141	541.522178909591	10
29	6151	542.125647341144	5
29	6161	542.926931704534	7
29	6167	543.331968512062	3
29	6173	543.739917303947	3
29	6184	544.447082915121	6
29	6195	545.353575213892	8
29	6218	548.6	6
29	6223	549	3
29	6230	549.408690320741	3
29	6236	549.810787053786	3
29	6242	550.017315510038	1
29	6252	550.818544159316	7
29	6272	554.2	2
29	6279	554.701468959616	4
29	6287	555.206715476654	4
29	6293	555.614593862419	3
29	6298	555.92043087793	2
29	6313	557.026916028072	10
29	6318	557.335738463086	2
29	6326	557.941492384973	5
29	6356	560.3	3
29	6363	560.9	5
29	6372	561.600777616356	6
29	6386	562.606486198603	9
29	6396	563.407291929133	7
29	6407	564.11395410337	6
29	6416	564.820864282785	6
29	6426	565.62386170159	7
29	6438	566.425421510915	7
29	6446	567.030388715624	5
29	6466	570.2	2
29	6475	571	7
29	6481	571.402321584927	3
29	6491	572.003560839294	5
29	6499	572.605454380529	5
29	6508	573.308375781032	6
29	6519	574.016601704359	6
29	6525	574.422639164926	3
29	6534	575.131778186093	6
29	6548	576.135200562285	9
29	6570	580.5	5
29	6576	581	4
29	6586	581.80629100661	7
29	6596	582.406868976568	5
29	6601	582.7074019401	2
29	6610	583.40860539921	6
29	6616	583.814272945587	3
29	6642	586.8	8
29	6645	587	1
29	6655	587.809536953764	7
29	6669	588.813421325085	9
29	6677	589.419832121862	5
29	6687	590.027685079334	5
29	6699	591.036772326102	9
29	6708	591.738422645052	6
29	6731	594.5	5
29	6735	594.8	2
29	6743	595.407948951276	5
29	6758	596.508315540872	10
29	6770	597.51516163881	9
29	6781	598.220266269753	6
29	6786	598.52611656703	2
29	6812	602.8	8
29	6818	603.3	4
29	6830	604.106119633563	7
29	6836	604.509840008808	3
29	6844	605.117563701309	5
29	6851	605.626017180459	4
29	6855	605.832524890835	1
29	6861	606.03480739366	1
29	6867	606.444119510417	3
29	6893	610.8	8
29	6897	611.1	2
29	6904	611.609480146828	4
29	6914	612.217152667408	5
29	6922	612.721669470459	4
29	6930	613.329389426743	5
29	6937	613.837989102832	4
29	6946	614.34755794214	4
29	6950	614.55318332766	1
29	6959	615.258742375083	6
29	6967	615.865752193206	5
29	6981	616.869038386784	9
29	7007	620.8	8
29	7012	621.2	3
29	7028	622.406231621766	11
29	7035	622.910052553328	4
29	7043	623.519389233161	5
29	7058	624.629043462611	10
29	7071	625.730701096064	10
29	7079	626.133873663904	3
29	7088	626.834877934377	6
29	7114	630.8	8
29	7120	631.3	4
29	7131	632.001912396338	6
29	7138	632.502989218197	4
29	7150	633.50749192709	9
29	7164	634.515977017626	9
29	7169	634.817449510444	2
29	7173	635.024358119782	1
29	7196	638.5	5
29	7203	639.1	5
29	7209	639.50858391884	3
29	7222	640.416701919725	8
29	7226	640.621613288281	1
29	7233	641.126537199985	4
29	7239	641.53624029228	3
29	7253	642.54485614449	9
29	7264	643.451217903778	8
29	7271	643.957312723483	4
29	7281	644.561795070475	5
29	7303	648.5	5
29	7307	648.8	2
29	7316	649.507664937146	6
29	7327	650.211267783299	6
29	7338	651.114050671988	8
29	7342	651.316014409357	1
29	7346	651.518981118622	1
29	7350	651.728282679643	1
29	7357	652.033639228278	2
29	7366	652.737722628011	6
29	7374	653.337760812527	5
29	7393	656.1	1
29	7402	656.9	7
29	7407	657.204017390224	2
29	7412	657.506533689307	2
29	7426	658.507403390453	9
29	7435	659.210488977901	6
29	7443	659.811381278518	5
29	7451	660.215949961417	3
29	7460	660.920254710276	6
29	7483	664.5	5
29	7493	665.4	8
29	7499	665.806050617906	3
29	7508	666.311119483901	4
29	7513	666.615338747755	2
29	7520	667.119549363867	4
29	7528	667.723569038278	5
29	7547	670.1	1
29	7553	670.6	4
29	7558	670.907211182587	2
29	7568	671.711967060225	7
29	7576	672.11929989535	3
29	7581	672.422150381888	2
29	7587	672.822379750402	3
29	7609	676.4	4
29	7618	677.2	7
29	7626	677.801264540147	5
29	7637	678.507912396778	6
29	7660	682.5	5
29	7672	683.6	10
29	7677	683.902922649839	2
29	7688	684.612865398071	6
29	7694	685.01915659857	3
29	7704	685.822227478374	7
29	7714	686.428825289637	5
29	7721	686.843920987452	3
29	7728	687.3492789422	4
29	7748	690.2	2
29	7752	690.5	2
29	7757	690.809155184812	2
29	7762	691.110467617189	2
29	7771	691.819751216513	6
29	7777	692.029723071404	1
29	7785	692.63255036031	5
29	7793	693.236556261113	5
29	7818	696.7	7
29	7825	697.3	5
29	7840	698.406051082587	10
29	7845	698.713316946	2
29	7851	699.11347502277	3
29	7859	699.72250911937	5
29	7880	702.3	3
29	7885	702.7	3
29	7891	703.100161983824	3
29	7897	703.50656197907	3
29	7911	704.511433762976	9
29	7920	705.21736275685	6
29	7927	705.718042281539	4
29	7935	706.122983495263	3
29	7943	706.730779234229	5
29	7949	707.131574661668	3
29	7955	707.5404138143	3
29	7996	710.6	6
29	8005	711.4	7
29	8018	712.307631951123	8
29	8027	713.017071175937	6
29	8033	713.421556605914	3
29	8047	714.424481799756	9
29	8053	714.828075864568	3
29	8060	715.328773450871	4
29	8071	716.038604397327	6
29	8084	717.148455566291	10
29	8110	720.8	8
29	8120	721.7	8
29	8132	722.502229219493	7
29	8139	723.005272726525	4
29	8146	723.51412712162	4
29	8150	723.722919926062	1
29	8163	724.628189279735	8
29	8186	728.5	5
29	8191	728.9	3
29	8201	729.704968352618	7
29	8213	730.50969452907	7
29	8222	731.21159339985	6
29	8228	731.618020687574	3
29	8239	732.318196845113	6
29	8249	733.120488886069	7
29	8256	733.621978707736	4
29	8277	736.3	3
29	8283	736.8	4
29	8290	737.308781301926	4
29	8301	738.018604020205	6
29	8307	738.425235557536	3
29	8312	738.729122953697	2
29	8339	742.9	9
29	8346	743.5	5
29	8361	744.60278691306	10
29	8369	745.206603959123	5
29	8375	745.60832384135	3
29	8399	748.6	6
29	8404	749	3
29	8411	749.501170810507	4
29	8422	750.202178550354	6
29	8430	750.806536221397	5
29	8438	751.409042141865	5
29	8449	752.019054898433	5
29	8455	752.424854778339	3
29	8462	752.9285778119	4
29	8472	753.733678603973	7
29	8486	754.743294258117	9
29	8514	759	10
29	8523	759.8	7
29	8535	760.604401209428	7
29	8546	761.504464884161	8
29	8558	762.310173140063	7
29	8568	763.119087812495	7
29	8576	763.723584736117	5
29	8597	766.3	3
29	8602	766.7	3
29	8613	767.60879537631	8
29	8623	768.211711530677	5
29	8632	768.918021224526	6
29	8642	769.719511683211	7
29	8654	770.526586965029	7
29	8664	771.327781698971	7
29	8670	771.734316367164	3
29	8680	772.337663760887	5
29	8690	773.147573246002	7
29	8713	776.5	5
29	8717	776.8	2
29	8727	777.607879569767	7
29	8732	777.914787561235	2
29	8740	778.320373130338	3
29	8750	779.127912346776	7
29	8757	779.630593016826	4
29	8770	780.531711634109	8
29	8779	781.234967988536	6
29	8807	785	10
29	8813	785.5	4
29	8827	786.501855842799	9
29	8834	787.011745973049	4
29	8839	787.318414718114	2
29	8843	787.528031671779	1
29	8862	790.2	2
29	8871	791	7
29	8879	791.608461382128	5
29	8884	791.910827345612	2
29	8892	792.511365634886	5
29	8902	793.313216096696	7
29	8912	794.118086448826	7
29	8918	794.523408091435	3
29	8926	795.126576510312	5
29	8933	795.626590896968	4
29	8937	795.831078820172	1
29	8945	796.436211293399	5
