version 2
run Join-47-20130520-16:32:24-32715
attr configname Join
attr datetime 20130520-16:32:24
attr experiment "\"Join\""
attr inifile omnetpp.ini
attr iterationvars $0=512
attr iterationvars2 "$0=512, $repetition=7"
attr measurement $0=512
attr network Network
attr processid 32715
attr repetition 7
attr replication #7
attr resultdir results
attr runnumber 47
attr seedset 47

vector 47  Network.dyn_peer[0]  lookupHopsSig:vector  ETV
47	1703	21.129668980518	11
47	1726	24.8	8
47	1741	26	11
47	1750	26.707058676716	6
47	1760	27.513112412229	7
47	1774	28.51820882158	9
47	1781	29.026157388811	4
47	1803	30.829582120459	17
47	1814	31.737395199585	8
47	1843	35.3	13
47	1854	36.1	7
47	1867	37.205180059245	10
47	1885	38.614747000089	13
47	1905	40.21669091906	15
47	1917	41.221389750983	9
47	1926	41.925430068902	6
47	1935	42.428059468024	4
47	1947	43.434933669133	9
47	1965	44.840703053559	13
47	2018	51.3	33
47	2028	52	6
47	2046	53.602457259343	15
47	2061	54.706917171502	10
47	2074	55.808376402743	10
47	2089	56.914575724589	10
47	2101	57.922184107123	9
47	2109	58.324912081713	3
47	2121	59.325431847901	9
47	2132	60.034713351768	6
47	2155	64.6	6
47	2175	66.3	16
47	2199	68.309646846463	19
47	2211	69.310364637991	9
47	2219	69.912803346516	5
47	2232	70.821257528298	8
47	2262	73.42641889337	25
47	2305	78.3	23
47	2317	79.4	10
47	2329	80.207502291316	7
47	2338	80.912761517734	6
47	2349	81.817696324962	8
47	2365	83.024952855902	11
47	2386	84.730917768199	16
47	2413	89.2	12
47	2428	90.4	11
47	2438	91.204823556288	7
47	2451	92.114698141083	8
47	2462	93.024359624901	8
47	2469	93.529877223724	4
47	2481	94.334191997868	7
47	2503	98.7	7
47	2514	99.7	9
47	2525	100.406619320933	6
47	2532	100.914478764161	4
47	2543	101.819259611744	8
47	2552	102.325946937725	4
47	2558	102.729902380316	3
47	2570	103.739749766946	9
47	2579	104.247989604132	4
47	2610	109.5	15
47	2624	110.6	10
47	2639	111.90207032385	12
47	2655	113.103679344709	11
47	2665	113.908423716529	7
47	2676	114.617635802943	6
47	2686	115.41989998286	7
47	2691	115.728460138331	2
47	2712	117.430084388854	16
47	2725	118.332506037246	8
47	2737	119.334210547482	9
47	2748	120.034237960053	6
47	2756	120.64052827035	5
47	2764	121.242555447143	5
47	2797	125.5	15
47	2814	126.9	13
47	2832	128.30660287532	13
47	2845	129.409291504604	10
47	2861	130.611032603861	11
47	2866	130.917443311999	2
47	2894	133.320352826628	23
47	2899	133.624617203599	2
47	2904	133.928103550648	2
47	2922	135.334116287891	13
47	2952	139.2	12
47	2964	140.1	8
47	2989	142.209844444233	20
47	2999	143.012910115746	7
47	3014	144.118772506885	10
47	3028	145.32457531404	11
47	3055	147.629131161631	22
47	3082	149.933993555447	22
47	3119	153.9	19
47	3127	154.4	4
47	3137	155.202613652981	7
47	3144	155.709951711701	4
47	3159	156.814047575279	10
47	3170	157.718259750989	8
47	3203	161.5	15
47	3217	162.6	10
47	3238	164.301899963824	16
47	3259	166.005119977658	16
47	3267	166.609595242074	5
47	3288	168.318419358482	16
47	3309	170.021014697538	16
47	3326	171.527147705927	14
47	3345	173.029419945592	14
47	3398	179.3	33
47	3415	180.7	13
47	3433	182.10824044903	13
47	3441	182.716274652715	5
47	3447	183.118853491413	3
47	3456	183.827157668858	6
47	3473	185.127223158714	12
47	3578	190.8	28
47	3595	191.5	6
47	3624	193.004392601025	14
47	3639	194.110762613389	10
47	3651	195.114366104198	9
47	3667	196.317401258973	11
47	3678	197.218242015372	8
47	3731	203.3	33
47	3735	203.6	2
47	3752	204.903208338213	12
47	3760	205.511497051459	5
47	3770	206.112638866083	5
47	3787	207.618903302646	14
47	3797	208.22249137683	5
47	3809	209.223353075633	9
47	3823	210.224778448176	9
47	3836	211.330320377934	10
47	3854	212.739974164499	13
47	3866	213.746718022725	9
47	3905	216.1	1
47	3930	217.2	10
47	3946	217.900277291268	6
47	3958	218.400616517122	4
47	3967	219.110605209184	6
47	3972	219.419740283105	2
47	3982	220.024536556368	5
47	3991	220.731508900967	6
47	3996	221.041453040006	2
47	4022	224.8	8
47	4028	225.3	4
47	4036	225.904674328959	5
47	4051	227.01417198311	10
47	4060	227.714800060856	6
47	4072	228.514887554129	7
47	4081	229.216639389142	6
47	4088	229.719049072456	4
47	4108	232.4	4
47	4121	233.6	11
47	4142	235.308577961067	16
47	4148	235.616688532541	2
47	4152	235.822955867741	1
47	4200	240.8	28
47	4209	241.6	7
47	4231	243.401728543003	17
47	4248	244.707205725239	12
47	4257	245.410199279246	6
47	4270	246.314555759079	8
47	4280	247.120206451132	7
47	4304	250.9	9
47	4313	251.7	7
47	4334	253.409307380216	16
47	4348	254.412130368102	9
47	4354	254.819985758395	3
47	4370	256.026605396597	11
47	4381	256.928010087646	8
47	4390	257.63595801975	6
47	4400	258.236937846493	5
47	4421	262.3	3
47	4434	263.5	11
47	4445	264.208764997397	6
47	4454	264.917015957373	6
47	4469	266.019816486047	10
47	4485	267.424206092838	13
47	4496	268.133817958015	6
47	4516	272.5	5
47	4526	273.4	8
47	4543	274.703117356151	12
47	4550	275.20373267447	4
47	4557	275.709726432071	4
47	4580	277.619431143473	18
47	4589	278.122949854568	4
47	4594	278.432490492946	2
47	4600	278.840667251933	3
47	4612	279.848956298045	9
47	4647	283.7	17
47	4653	284	2
47	4666	285.102859764047	10
47	4676	285.912583972859	7
47	4686	286.513378438116	5
47	4698	287.519239844868	9
47	4703	287.82556853003	2
47	4729	290.8	8
47	4748	292.4	15
47	4757	293.101679427833	6
47	4770	294.001847161207	8
47	4778	294.610880188197	5
47	4790	295.620686788512	9
47	4798	296.030520336501	3
47	4815	300.2	2
47	4822	300.8	5
47	4828	301.205017850687	3
47	4835	301.711070623548	4
47	4845	302.318553425878	5
47	4851	302.71896959391	3
47	4858	303.22249350843	4
47	4867	303.929065208399	6
47	4876	304.43623419345	4
47	4895	308.3	3
47	4901	308.8	4
47	4913	309.80124319992	9
47	4934	311.502243562303	16
47	4944	312.104915621955	5
47	4957	313.214405619333	10
47	4966	313.914729619876	6
47	4976	314.520943146264	5
47	4984	315.130174175938	5
47	4993	315.831899429223	6
47	5004	316.536029142565	6
47	5013	317.244450404425	6
47	5060	322.8	28
47	5076	324.1	12
47	5092	325.508117892676	13
47	5103	326.213179324016	6
47	5109	326.622638005596	3
47	5127	328.027355877659	13
47	5137	328.831394787879	7
47	5142	329.139173106685	2
47	5161	330.64449422634	14
47	5180	332.154412904831	14
47	5197	333.662117851925	14
47	5251	336.7	7
47	5278	337.9	11
47	5298	338.602400529731	6
47	5314	339.310128947472	6
47	5328	339.818829420398	4
47	5362	343.6	16
47	5378	344.9	12
47	5398	346.509388436675	15
47	5410	347.514799833304	9
47	5423	348.4184620781	8
47	5435	349.4191558034	9
47	5447	350.226438313592	7
47	5473	354.8	8
47	5485	355.9	10
47	5503	357.301870480231	13
47	5516	358.208256156318	8
47	5533	359.712005431609	14
47	5554	361.420136861753	16
47	5568	362.42706119386	9
47	5577	363.128779776794	6
47	5600	366.7	7
47	5609	367.5	7
47	5622	368.405899155186	8
47	5630	369.010990556419	5
47	5639	369.717335994354	6
47	5656	371.025367273635	12
47	5665	371.732362708999	6
47	5674	372.233126422099	4
47	5686	373.235261851495	9
47	5698	374.037663536376	7
47	5707	374.747486428231	6
47	5717	375.552224056994	7
47	5733	376.760356118302	11
47	5742	377.467551762245	6
47	5764	380.5	5
47	5773	381.3	7
47	5785	382.108142107145	7
47	5793	382.71013371335	5
47	5799	383.110875826407	3
47	5809	383.914426036939	7
47	5818	384.3276160334	3
47	5827	385.028495809905	6
47	5859	387.830887783252	27
47	5907	392.8	28
47	5932	395	21
47	5954	396.801518435259	17
47	5972	398.208647124264	13
47	5984	399.216007268591	9
47	6002	400.622319252071	13
47	6009	401.131074846963	4
47	6026	402.439620473516	12
47	6053	406.9	9
47	6057	407.2	2
47	6071	408.202895835051	9
47	6078	408.703734537753	4
47	6085	409.205256853589	4
47	6099	410.20847478783	9
47	6105	410.608682457043	3
47	6130	415	10
47	6145	416.2	11
47	6170	418.308949574246	20
47	6178	418.911568329452	5
47	6188	419.712337549139	7
47	6210	421.51264352439	17
47	6227	422.815716583794	12
47	6246	424.32277623452	14
47	6268	428.4	4
47	6273	428.8	3
47	6281	429.406193944059	5
47	6297	430.611364228855	11
47	6301	430.816046935447	1
47	6306	431.117341259709	2
47	6319	432.026694941984	8
47	6332	433.126818164722	10
47	6339	433.63362629635	4
47	6352	434.53823292287	8
47	6376	438.8	8
47	6381	439.2	3
47	6395	440.200921173871	9
47	6402	440.706763072726	4
47	6410	441.310576879537	5
47	6428	442.719456535332	13
47	6438	443.521675628857	7
47	6449	444.228963145737	6
47	6464	445.534768868267	12
47	6476	446.340702672057	7
47	6483	446.848200184231	4
47	6490	447.349715360904	4
47	6538	453	30
47	6554	454.3	12
47	6565	455.203281130066	8
47	6591	457.412492766207	21
47	6607	458.615295109535	11
47	6612	458.918649206315	2
47	6656	464.4	24
47	6663	465	5
47	6674	465.907773624414	8
47	6685	466.613478596825	6
47	6693	467.222525526934	5
47	6705	468.027018360729	7
47	6718	469.133148784244	10
47	6724	469.533933902517	3
47	6738	470.535649738227	9
47	6770	475.4	14
47	6779	476	5
47	6784	476.301100243688	2
47	6790	476.710018121492	3
47	6797	477.212077221135	4
47	6801	477.417423927302	1
47	6813	478.220274852772	7
47	6858	484.8	28
47	6870	485.9	10
47	6897	488.000318712957	20
47	6906	488.705335041477	6
47	6924	490.107409358314	13
47	6955	495.3	13
47	6970	496.5	11
47	6981	497.402333673895	8
47	7004	499.31208748694	18
47	7021	500.616941019987	12
47	7033	501.621538154968	9
47	7048	502.729955707319	10
47	7058	503.532749857109	7
47	7067	504.033716835964	4
47	7101	509.6	16
47	7116	510.8	11
47	7127	511.709277451063	8
47	7145	513.118444551426	13
47	7161	514.318846919586	11
47	7178	515.828447030259	14
47	7189	516.528818072811	6
47	7202	517.629414471247	10
47	7217	518.734425837198	10
47	7240	520.638893070501	18
47	7250	521.440042439839	7
47	7268	522.840437035856	13
47	7280	523.84048031548	9
47	7289	524.344975264069	4
47	7325	529.8	18
47	7343	531.3	14
47	7356	532.208164877849	8
47	7368	533.214281942203	9
47	7382	534.21506873061	9
47	7391	534.924689206961	6
47	7402	535.832702688617	8
47	7426	537.841795087743	19
47	7437	538.549514368073	6
47	7452	539.850237314953	12
47	7461	540.351934225042	4
47	7470	541.052899513742	6
47	7488	542.460680961591	13
47	7501	543.568230712707	10
47	7518	544.876671193328	12
47	7567	551	30
47	7581	552.1	10
47	7592	553.005986911309	8
47	7602	553.815663831375	7
47	7623	555.524028134405	16
47	7636	556.432610384	8
47	7643	556.94044908809	4
47	7672	561.1	11
47	7680	561.8	6
47	7691	562.500214189041	6
47	7699	563.101464552282	5
47	7713	564.104686801348	9
47	7719	564.506677281654	3
47	7731	565.507733970936	9
47	7786	571.5	35
47	7791	571.9	3
47	7802	572.605905629463	6
47	7814	573.6070605678	9
47	7828	574.607118752536	9
47	7837	575.309107493048	6
47	7844	575.812679024566	4
47	7851	576.119076052204	2
47	7860	576.819141625655	6
47	7870	577.619615238467	7
47	7879	578.128080197253	4
47	7906	580.434222955954	22
47	7933	584.9	9
47	7952	586.5	15
47	7958	586.905632586695	3
47	7980	588.712485202701	17
47	8013	591.621839244234	28
47	8021	592.028826140995	3
47	8055	597.6	16
47	8073	599.1	14
47	8092	600.600976336007	14
47	8101	601.30713359723	6
47	8113	602.116305308371	7
47	8130	603.624533323031	14
47	8143	604.526473731824	8
47	8170	609.2	12
47	8184	610.3	10
47	8189	610.607151588546	2
47	8202	611.716935649183	10
47	8215	612.6263599002	8
47	8243	615.028988851573	23
47	8260	616.336468611027	12
47	8273	617.442282823683	10
47	8286	618.347408158332	8
47	8296	619.149009001317	7
47	8310	620.153610259063	9
47	8318	620.757113377774	5
47	8329	621.665476812693	8
47	8351	623.47487132763	17
47	8384	627.5	15
47	8397	628.5	9
47	8409	629.501841087145	9
47	8419	630.105151246375	5
47	8430	631.006596675201	8
47	8440	631.807416666965	7
47	8489	636.9	29
47	8494	637.3	3
47	8509	638.40245378318	10
47	8523	639.610201555071	11
47	8537	640.617299546354	9
47	8546	641.320974145477	6
47	8553	641.822359973524	4
47	8565	642.628709084525	7
47	8575	643.432288686105	7
47	8589	644.437204664913	9
47	8597	645.043575058344	5
47	8608	645.94905922407	8
47	8624	647.154043254542	11
47	8638	648.155900396012	9
47	8664	652.9	9
47	8671	653.5	5
47	8683	654.30006671857	7
47	8695	655.303728706647	9
47	8706	656.003815471081	6
47	8716	656.812721725802	7
47	8725	657.52018318524	6
47	8735	658.121466652889	5
47	8747	659.123113539864	9
47	8820	663.5	15
47	8843	664.5	9
47	8863	665.709978723963	11
47	8877	666.717561365495	9
47	8884	667.223355913149	4
47	8888	667.430822104239	1
47	8902	668.433483633527	9
47	8946	674.4	24
47	8958	675.5	10
47	8971	676.406880798728	8
47	8986	677.715120827284	12
47	8995	678.21947587383	4
47	9017	680.029274793744	17
47	9023	680.432604765702	3
47	9048	684.7	7
47	9056	685.4	6
47	9062	685.801944380388	3
47	9078	687.002303127284	11
47	9095	688.304256878111	12
47	9101	688.706140491194	3
47	9110	689.413738889987	6
47	9134	692.9	9
47	9140	693.4	4
47	9162	695.209470081154	17
47	9182	696.813961346612	15
47	9191	697.521897581183	6
47	9197	697.925534280392	3
47	9206	698.431189116586	4
47	9219	699.534366753487	10
47	9252	703.5	15
47	9266	704.6	10
47	9274	705.205096038298	5
47	9288	706.206943855862	9
47	9302	707.407352864119	11
47	9317	708.508091859645	10
47	9328	709.40811561973	8
47	9335	709.912661617046	4
47	9348	710.820130427637	8
47	9371	714.5	5
47	9384	715.7	11
47	9397	716.608779574912	8
47	9424	718.90965637067	22
47	9431	719.410309941872	4
47	9441	720.01408031144	5
47	9446	720.32382833374	2
47	9459	721.42710581888	10
47	9464	721.736315855572	2
47	9480	722.944732901516	11
47	9505	726.8	8
47	9513	727.5	6
47	9534	729.206182530708	16
47	9547	730.107471954507	8
47	9557	730.90876092702	7
47	9598	736.1	21
47	9605	736.7	5
47	9622	738.006925657894	12
47	9631	738.71220462368	6
47	9637	739.116497303374	3
47	9644	739.623000898941	4
47	9648	739.831579355292	1
47	9691	744.3	23
47	9702	745.3	9
47	9716	746.307081697927	9
47	9729	747.4130005412	10
47	9748	748.920857281036	14
47	9760	749.926550396444	9
47	9789	752.228968357395	22
47	9820	757.3	13
47	9826	757.8	4
47	9843	759.108118104073	12
47	9852	759.81715991147	6
47	9864	760.626624049159	7
47	9878	761.831908252894	11
47	9895	763.136354054373	12
47	9903	763.744549514043	5
47	9945	768.2	22
47	9950	768.6	3
47	9963	769.70001323129	10
47	9970	770.005813170321	2
47	9986	771.407447249713	13
47	10003	772.708804744741	12
47	10014	773.617154608017	8
47	10028	774.62053840951	9
47	10038	775.429264021575	7
47	10079	780.1	21
47	10086	780.7	5
47	10095	781.407231975232	6
47	10105	782.011151093469	5
47	10112	782.519290731748	4
47	10119	783.019346225025	4
47	10181	787	10
47	10202	788.8	17
47	10206	789.007359731839	1
47	10213	789.514875238301	4
47	10227	790.521679930641	9
47	10232	790.823673012629	2
47	10260	795	10
47	10266	795.5	4
47	10282	796.70403608449	11
47	10309	799.004748518976	22
47	10317	799.609913811498	5
47	10343	802.8	8
47	10351	803.5	6
47	10366	804.609083148615	10
47	10378	805.616558167637	9
47	10391	806.518538398424	8
47	10395	806.721431292721	1
47	10417	808.527165409514	17
47	10426	809.229684188164	6
47	10435	809.931753869772	6
47	10486	815.1	31
47	10500	816.2	10
47	10509	816.900812765276	6
47	10521	817.903769551056	9
47	10529	818.308739784177	3
47	10540	819.217256185539	8
47	10570	823.2	12
47	10576	823.7	4
47	10590	824.709714579975	9
47	10601	825.618565213311	8
47	10610	826.124130514332	4
47	10618	826.731098765919	5
47	10625	827.23467442592	4
47	10638	828.144086167196	8
47	10645	828.648081251867	4
47	10657	829.652750696895	9
47	10678	832.3	3
47	10682	832.6	2
47	10687	832.908477206774	2
47	10691	833.116930865716	1
47	10698	833.528154303538	3
47	10713	834.633864170747	10
47	10786	839.4	14
47	10811	840.4	9
47	10834	841.409102737603	9
47	10846	842.216499479245	7
47	10865	843.918217857307	16
47	10879	844.920669561679	9
47	10903	846.921327700094	19
47	10928	850.7	7
47	10944	852	12
47	10955	852.904585036933	8
47	10962	853.407825383776	4
47	10968	853.815527597306	3
47	10979	854.524988333043	6
47	10990	855.42974814337	8
47	11003	856.331967910812	8
47	11008	856.641802363926	2
47	11016	857.24449764931	5
47	11030	858.24688235811	9
47	11047	859.755315924471	14
47	11076	863.1	11
47	11091	864.3	11
47	11100	865.005019311783	6
47	11116	866.207117006412	11
47	11131	867.512589676569	12
47	11148	868.817528934767	12
47	11164	870.022281912269	11
47	11177	871.124870014553	10
47	11218	875.5	15
47	11235	876.9	13
47	11251	878.104049081427	11
47	11266	879.405560946629	12
47	11290	881.40921522746	19
47	11321	885.3	13
47	11335	886.4	10
47	11342	886.900682665072	4
47	11362	888.502589759474	15
47	11376	889.711506323498	11
47	11394	891.120757940137	13
47	11407	892.023959116148	8
47	11417	892.830221677335	7
47	11430	893.931541544153	10
47	11443	894.839975399477	8
47	11466	896.746263763992	18
47	11506	902	20
47	11509	902.2	1
47	11518	902.902142141207	6
47	11528	903.708450046828	7
47	11539	904.413366360595	6
47	11550	905.319700134189	8
47	11562	906.124009523435	7
47	11573	907.025907250863	8
47	11583	907.829661603901	7
47	11611	911	10
47	11629	912.5	14
47	11642	913.600246215891	10
47	11651	914.107789331311	4
47	11661	914.9130167564	7
47	11672	915.817068926577	8
47	11685	916.720394328605	8
47	11698	917.820844302131	10
47	11721	920.7	7
47	11729	921.4	6
47	11743	922.404010375451	9
47	11756	923.513499486196	10
47	11767	924.222470465245	6
47	11777	925.031594360338	7
47	11798	926.739812573727	16
47	11803	927.04633330101	2
47	11813	927.847342575477	7
47	11823	928.449634699167	5
47	11846	930.351972846477	18
47	11850	930.558453918199	1
47	11874	934.6	6
47	11884	935.5	8
47	11905	937.208940089652	16
47	11926	938.916829558619	16
47	11938	939.923933870746	9
47	11946	940.327363679756	3
47	11958	941.333729114898	9
47	11985	943.636568468192	22
47	12016	947.3	13
47	12027	948.1	7
47	12043	949.509738276582	13
47	12059	950.710949263926	11
47	12072	951.817047955362	10
47	12096	954.6	6
47	12109	955.8	11
47	12122	956.708255405102	8
47	12134	957.713033522585	9
47	12148	958.715405374431	9
47	12157	959.418011287973	6
47	12174	960.718893732084	12
47	12206	965.7	17
47	12219	966.7	9
47	12233	967.903061218664	11
47	12247	968.907509886635	9
47	12258	969.816449460935	8
47	12268	970.416981928991	5
47	12292	972.426613322987	19
47	12311	976.4	4
47	12330	978	15
47	12339	978.701066843529	6
47	12349	979.506647030046	7
47	12353	979.714083933416	1
47	12363	980.320678637449	5
47	12367	980.523913842353	1
47	12381	981.730383522628	11
47	12411	985.2	12
47	12417	985.7	4
47	12425	986.106594957874	3
47	12438	987.212702928203	10
47	12452	988.218744566376	9
47	12465	989.322088188988	10
47	12472	989.82542151046	4
47	12483	990.530141815797	6
47	12496	991.632501649996	10
47	12518	994.4	4
47	12522	994.7	2
47	12536	995.907644015774	11
47	12546	996.514651604781	5
47	12560	997.719094772478	11
47	12570	998.322929363457	5
47	12591	1000.027367857151	16
47	12598	1000.530289220813	4
47	12602	1000.737161563796	1
47	12697	1006.5	25
47	12718	1008.3	17
47	12726	1008.905724479481	5
47	12737	1009.815477815972	8
47	12753	1011.01880401664	11
47	12761	1011.622362674074	5
47	12771	1012.226335243021	5
47	12786	1013.526528050088	12
47	12799	1014.434024441534	8
47	12808	1015.140131692703	6
47	12821	1016.049159435369	8
47	12853	1021.4	14
47	12868	1022.6	11
47	12880	1023.604261633444	9
47	12893	1024.50924537725	8
47	12906	1025.617663736086	10
47	12920	1026.62542127376	9
47	12934	1027.833232088562	11
47	12965	1031.6	16
47	12978	1032.6	9
47	12990	1033.60286860635	9
47	13006	1034.804984448256	11
47	13014	1035.407453795172	5
47	13028	1036.413731330611	9
47	13039	1037.31754406117	8
47	13062	1040.8	8
47	13083	1042.6	17
47	13115	1045.408628536066	27
47	13133	1046.815006714897	13
47	13138	1047.11803559491	2
47	13153	1048.227523466097	10
47	13170	1049.731556758063	14
47	13190	1051.340104625394	15
47	13215	1054.7	7
47	13227	1055.8	10
47	13240	1056.701150072102	8
47	13249	1057.40910819748	6
47	13269	1059.01154683585	15
47	13280	1059.914343397251	8
47	13295	1061.015450669968	10
47	13309	1062.024520363731	9
47	13320	1062.92823301081	8
47	13379	1067.8	18
47	13395	1069.1	12
47	13403	1069.700303396126	5
47	13416	1070.608731780214	8
47	13429	1071.718676122172	10
47	13446	1073.020768815154	12
47	13461	1074.125801466629	10
47	13477	1075.533042305358	13
47	13490	1076.438810217768	8
47	13523	1081.5	15
47	13558	1084.5	29
47	13568	1085.307339032622	7
47	13580	1086.116292887557	7
47	13591	1087.017889229358	8
47	13608	1088.320216510135	12
47	13617	1089.025654674216	6
47	13631	1090.026076906951	9
47	13642	1090.929270339541	8
47	13670	1095	10
47	13684	1096.1	10
47	13691	1096.60590275977	4
47	13699	1097.207204894383	5
47	13707	1097.809957031564	5
47	13719	1098.619905483052	7
47	13728	1099.324844141646	6
47	13735	1099.828417173383	4
47	13744	1100.331908832463	4
47	13769	1102.433017435577	20
47	13785	1103.835304560431	13
47	13802	1105.138820916973	12
47	13822	1106.743736820209	15
47	13841	1108.251715962513	14
47	13869	1113	10
47	13875	1113.5	4
47	13886	1114.201109377124	6
47	13895	1114.908233140838	6
47	13903	1115.513761425845	5
47	13921	1116.91576520065	13
47	13930	1117.61815275316	6
47	13954	1120.9	9
47	13960	1121.4	4
47	13973	1122.306559964993	8
47	13986	1123.414228489454	10
47	14001	1124.514497522645	10
47	14014	1125.618208876478	10
47	14035	1127.322433320572	16
47	14040	1127.629175689264	2
47	14070	1131.4	14
47	14074	1131.7	2
47	14085	1132.401968668808	6
47	14100	1133.703061521599	12
47	14110	1134.311169172861	5
47	14118	1134.911298795505	5
47	14138	1136.518203845854	15
47	14149	1137.423155923768	8
47	14200	1140.5	5
47	14217	1141.2	6
47	14227	1141.600224530012	3
47	14281	1143.903590379082	22
47	14298	1144.911562245974	9
47	14315	1146.214368084065	12
47	14342	1151	10
47	14355	1152.2	11
47	14371	1153.607085892327	13
47	14382	1154.510951364272	8
47	14398	1155.915183975048	13
47	14402	1156.123619150958	1
47	14416	1157.333427567813	11
47	14428	1158.334061341511	9
47	14438	1159.13602041308	7
