file 25290 1369149732                                           
version 2
run Join-62-20130520-16:32:42-32715
attr configname Join
attr datetime 20130520-16:32:42
attr experiment "\"Join\""
attr inifile omnetpp.ini
attr iterationvars $0=2048
attr iterationvars2 "$0=2048, $repetition=2"
attr measurement $0=2048
attr network Network
attr processid 32715
attr repetition 2
attr replication #2
attr resultdir results
attr runnumber 62
attr seedset 62
vector 62  Network.dyn_peer[0]  lookupHopsSig:vector  ETV
62	444 24846 5886 32215 20.13600584259 2132.637608000163 933 1 75 17265 422591
