file 20623 1369149732                                           
version 2
run Join-32-20130520-16:32:16-32715
attr configname Join
attr datetime 20130520-16:32:16
attr experiment "\"Join\""
attr inifile omnetpp.ini
attr iterationvars $0=256
attr iterationvars2 "$0=256, $repetition=2"
attr measurement $0=256
attr network Network
attr processid 32715
attr repetition 2
attr replication #2
attr resultdir results
attr runnumber 32
attr seedset 32
vector 32  Network.dyn_peer[0]  lookupHopsSig:vector  ETV
32	441 20182 935 11290 20.112777577235 970.632140851442 823 1 25 5731 50493
