file 23343 1369149732                                           
version 2
run Join-52-20130520-16:32:28-32715
attr configname Join
attr datetime 20130520-16:32:28
attr experiment "\"Join\""
attr inifile omnetpp.ini
attr iterationvars $0=1024
attr iterationvars2 "$0=1024, $repetition=2"
attr measurement $0=1024
attr network Network
attr processid 32715
attr repetition 2
attr replication #2
attr resultdir results
attr runnumber 52
attr seedset 52
vector 52  Network.dyn_peer[0]  lookupHopsSig:vector  ETV
52	444 22899 3102 21829 20.3 1618.214339733584 879 1 39 12238 215650
