file 25182 1369149732                                           
version 2
run Join-69-20130520-16:32:59-32715
attr configname Join
attr datetime 20130520-16:32:59
attr experiment "\"Join\""
attr inifile omnetpp.ini
attr iterationvars $0=2048
attr iterationvars2 "$0=2048, $repetition=9"
attr measurement $0=2048
attr network Network
attr processid 32715
attr repetition 9
attr replication #9
attr resultdir results
attr runnumber 69
attr seedset 69
vector 69  Network.dyn_peer[0]  lookupHopsSig:vector  ETV
69	444 24738 5900 31353 20.5 2147.44603317553 930 1 73 17499 441823
