file 25583 1369061038                                           
version 2
run Join-94-20130520-16:42:40-32715
attr configname Join
attr datetime 20130520-16:42:40
attr experiment "\"Join\""
attr inifile omnetpp.ini
attr iterationvars $0=16384
attr iterationvars2 "$0=16384, $repetition=4"
attr measurement $0=16384
attr network Network
attr processid 32715
attr repetition 4
attr replication #4
attr resultdir results
attr runnumber 94
attr seedset 94

vector 94  Network.dyn_peer[0]  lookupHopsSig:vector  ETV
94	447 25136 43474 107249 21.915709223928 5155.622441137548 916 3 183 47450 3366318
