version 2
run Join-38-20130520-16:32:19-32715
attr configname Join
attr datetime 20130520-16:32:19
attr experiment "\"Join\""
attr inifile omnetpp.ini
attr iterationvars $0=256
attr iterationvars2 "$0=256, $repetition=8"
attr measurement $0=256
attr network Network
attr processid 32715
attr repetition 8
attr replication #8
attr resultdir results
attr runnumber 38
attr seedset 38

vector 38  Network.dyn_peer[0]  lookupHopsSig:vector  ETV
38	981	22.7	7
38	990	23.5	7
38	1000	24.103232636346	5
38	1014	25.309771422221	11
38	1026	26.118702027635	7
38	1038	27.118735645287	9
38	1046	27.72162309104	5
38	1064	29.129857457884	13
38	1093	33.1	11
38	1101	33.8	6
38	1119	35.206314195347	13
38	1127	35.809409338325	5
38	1140	36.711261976492	8
38	1153	37.811584036064	10
38	1159	38.018905195433	1
38	1185	42.8	8
38	1192	43.4	5
38	1203	44.102796663402	6
38	1215	45.105412476772	9
38	1221	45.514517896409	3
38	1226	45.818505278423	2
38	1233	46.122116737884	2
38	1239	46.526240176352	3
38	1251	47.528046457488	9
38	1272	50.3	3
38	1281	51.1	7
38	1286	51.407544565242	2
38	1297	52.107887728155	6
38	1303	52.515260181733	3
38	1309	52.918966032416	3
38	1317	53.521417358932	5
38	1326	54.029655888737	4
38	1347	58.3	3
38	1357	59.2	8
38	1369	60.001144666569	7
38	1382	61.106880614366	10
38	1397	62.2118493408	10
38	1407	63.018985984973	7
38	1418	63.921124542316	8
38	1439	66.6	6
38	1448	67.4	7
38	1464	68.60851927279	11
38	1476	69.616525833503	9
38	1488	70.418445347138	7
38	1500	71.423858421014	9
38	1515	72.533627380044	10
38	1586	77.1	11
38	1615	78.3	11
38	1643	79.509875480865	11
38	1671	80.617939082772	10
38	1695	81.81958040593	11
38	1711	83.025214423602	11
38	1721	83.834775283503	7
38	1734	84.743375374678	8
38	1742	85.352854065013	5
38	1766	88.6	6
38	1775	89.4	7
38	1785	90.002153725957	5
38	1792	90.508641120707	4
38	1803	91.413038360121	8
38	1813	92.018548785004	5
38	1822	92.727558961639	6
38	1830	93.336578563165	5
38	1857	97.1	11
38	1865	97.706512937257	5
38	1875	98.313444782455	5
38	1887	99.314245637493	9
38	1892	99.614665318132	2
38	1949	102.8	8
38	2000	104.9	20
38	2010	105.300223504086	3
38	2048	107.302825220408	19
38	2062	108.310909074169	9
38	2089	112.9	9
38	2100	113.9	9
38	2114	114.902109139503	9
38	2130	116.105584799586	11
38	2141	117.010109586607	8
38	2151	117.815173423931	7
38	2164	118.715685091948	8
38	2175	119.615792749103	8
38	2189	120.623478241304	9
38	2201	121.631907310175	9
38	2248	124.3	3
38	2274	125.4	10
38	2280	125.807445061993	3
38	2291	126.515095941845	6
38	2303	127.524001707466	9
38	2315	128.330833846804	7
38	2327	129.336028467664	9
38	2341	130.345478858368	9
38	2356	131.645612236384	12
38	2392	135.8	18
38	2402	136.5	6
38	2422	138.100045168846	15
38	2433	139.008175120802	8
38	2447	140.010012618535	9
38	2456	140.714721398699	6
38	2465	141.416456877308	6
38	2472	141.921599129641	4
38	2479	142.223633974327	2
38	2485	142.626973381638	3
38	2496	143.533849015815	8
38	2509	144.442716627117	8
38	2533	148.7	7
38	2539	149.2	4
38	2545	149.601727195433	3
38	2550	149.90976950749	2
38	2561	150.617528387437	6
38	2567	151.023451079117	3
38	2582	152.128221950878	10
38	2590	152.730063839261	5
38	2603	153.830651316542	10
38	2629	156.8	8
38	2641	157.9	10
38	2657	159.105835292488	11
38	2674	160.408631556438	12
38	2686	161.417907365217	9
38	2700	162.423847873011	9
38	2726	166.8	8
38	2737	167.8	9
38	2748	168.508682463457	6
38	2763	169.818077729306	12
38	2769	170.021334225729	1
38	2779	170.824646183953	7
38	2790	171.729113791207	8
38	2832	176.2	22
38	2853	178	17
38	2862	178.702146637099	6
38	2871	179.405200652917	6
38	2881	180.011189752974	5
38	2891	180.812060945931	7
38	2900	181.519257103955	6
38	2915	182.621848118038	10
38	2919	182.826228611311	1
38	2930	183.727698048811	8
38	2939	184.231053416132	4
38	2960	188.3	3
38	2970	189.2	8
38	2982	190.002306867595	7
38	2986	190.205508043779	1
38	2998	191.211069253165	9
38	3014	192.415664175742	11
38	3049	196.2	2
38	3061	197.3	10
38	3072	198.004774213384	6
38	3079	198.514582081944	4
38	3086	199.023010119173	4
38	3094	199.630306564838	5
38	3104	200.238055642564	5
38	3130	205.1	11
38	3138	205.8	6
38	3148	206.407425257512	5
38	3155	206.917245280556	4
38	3170	208.01744209879	10
38	3174	208.219448687326	1
38	3186	209.221152937145	9
38	3192	209.627672893214	3
38	3200	210.030447671718	3
38	3213	211.134026309882	10
38	3223	211.942455228403	7
38	3234	212.649791218381	6
38	3243	213.356331440327	6
38	3266	216.5	5
38	3272	217	4
38	3283	217.909298154721	8
38	3296	218.812117967079	8
38	3306	219.617395441822	7
38	3319	220.5231849715	8
38	3334	221.825115622729	12
38	3358	224.9	9
38	3368	225.8	8
38	3375	226.106382014465	2
38	3381	226.50995135555	3
38	3390	227.210819083386	6
38	3397	227.717180648261	4
38	3405	228.121336361522	3
38	3427	232.7	7
38	3437	233.6	8
38	3448	234.306312091995	6
38	3458	235.107922649371	7
38	3465	235.61041395305	4
38	3476	236.311365241948	6
38	3487	237.217699628467	8
38	3501	238.227171583752	9
38	3507	238.634492656212	3
38	3515	239.239204890209	5
38	3528	240.145946477195	8
38	3534	240.55411731742	3
38	3543	241.256510942973	6
38	3559	242.456644596284	11
38	3596	247.9	19
38	3608	248.8	8
38	3615	249.306445880415	4
38	3626	250.008088159383	6
38	3634	250.616481274344	5
38	3639	250.923931473224	2
38	3647	251.532734258515	5
38	3675	255	10
38	3696	256.8	17
38	3705	257.505955226768	6
38	3716	258.208412834794	6
38	3721	258.510432079056	2
38	3727	258.919088949024	3
38	3737	259.722142902648	7
38	3790	262.5	5
38	3805	263.6	10
38	3817	264.405397297902	7
38	3825	265.011946385376	5
38	3840	266.121875417927	10
38	3852	267.1267874209	9
38	3858	267.527246203329	3
38	3873	268.629275802406	10
38	3879	269.031271797946	3
38	3887	269.634517646062	5
38	3902	270.743820985956	10
38	3909	271.246995884321	4
38	3922	272.149559468549	8
38	3929	272.650899576054	4
38	3940	273.556563985827	8
38	3961	276.4	4
38	3977	277.9	14
38	3990	278.807702104395	8
38	4000	279.614663121259	7
38	4014	280.621619104124	9
38	4046	285.4	14
38	4051	285.8	3
38	4062	286.505710720987	6
38	4071	287.213017839429	6
38	4080	287.913913539702	6
38	4089	288.417219064529	4
38	4105	289.824264152294	13
38	4119	290.825409031949	9
38	4127	291.428886957143	5
38	4137	292.037003490042	5
38	4164	296.9	9
38	4170	297.4	4
38	4184	298.40151993405	9
38	4199	299.707999112086	12
38	4211	300.512176292202	7
38	4217	300.918238095933	3
38	4225	301.525727164008	5
38	4253	305	10
38	4258	305.4	3
38	4269	306.103174622752	6
38	4274	306.411460052045	2
38	4281	306.912600389845	4
38	4285	307.116971858802	1
38	4290	307.420009165119	2
38	4313	310.8	8
38	4324	311.8	9
38	4337	312.708899716278	8
38	4341	312.91418774329	1
38	4350	313.624049662678	6
38	4355	313.933835526379	2
38	4372	315.24283397122	12
38	4380	315.849482807197	5
38	4391	316.550471001687	6
38	4423	321.4	14
38	4442	323	15
38	4456	324.005988966762	9
38	4470	325.206089755254	11
38	4489	326.714164444931	14
38	4500	327.621637524937	8
38	4513	328.529916341824	8
38	4522	329.233160062257	6
38	4528	329.635881442189	3
38	4551	332.5	5
38	4570	334.1	15
38	4577	334.600130334231	4
38	4586	335.303932453335	6
38	4597	336.0056165743	6
38	4606	336.713721416307	6
38	4616	337.520752452298	7
38	4621	337.823707001035	2
38	4630	338.324318926227	4
38	4641	339.224405150196	8
38	4688	342.2	2
38	4699	342.6	3
38	4715	343.206035034598	5
38	4732	343.915029868259	6
38	4744	344.719953984649	7
38	4773	349.1	11
38	4780	349.7	5
38	4794	350.701558849636	9
38	4804	351.501696472737	7
38	4820	352.702590186536	11
38	4837	354.003197786608	12
38	4855	355.6037552775	15
38	4869	356.604112765248	9
38	4892	360.7	7
38	4898	361.2	4
38	4907	361.907949033691	6
38	4923	363.112409470371	11
38	4939	364.322357165046	11
38	4955	365.73187906425	13
38	4992	369.9	19
38	5001	370.5	5
38	5012	371.401011818165	8
38	5029	372.709721717829	12
38	5042	373.816354061282	10
38	5068	376.8	8
38	5079	377.8	9
38	5097	379.207771909583	13
38	5112	380.309893480883	10
38	5135	382.210631389591	18
38	5146	383.117710334054	8
38	5155	383.825869826046	6
38	5169	384.82599602875	9
38	5176	385.33109636614	4
38	5201	388.7	7
38	5207	389.2	4
38	5216	389.907457112877	6
38	5226	390.516106210348	5
38	5235	391.221123701303	6
38	5242	391.724143166164	4
38	5255	392.63338924063	8
38	5282	397.2	12
38	5288	397.7	4
38	5301	398.606048484113	8
38	5307	399.014848413873	3
38	5316	399.718318680557	6
38	5326	400.322218524645	5
38	5358	405.4	14
38	5375	406.8	13
38	5387	407.801394396014	9
38	5404	409.111002825051	12
38	5414	409.91382559711	7
38	5425	410.619131744765	6
38	5437	411.619963914046	9
38	5448	412.320591589032	6
38	5456	412.922020451369	5
38	5460	413.122281285762	1
38	5487	416.9	9
38	5498	417.9	9
38	5506	418.30612124626	3
38	5515	419.008269385375	6
38	5533	420.417119129354	13
38	5544	421.327108539827	8
38	5555	422.034667750445	6
38	5567	423.04200193588	9
38	5573	423.443068764138	3
38	5596	426.5	5
38	5609	427.7	11
38	5617	428.101184018999	3
38	5630	429.204412825232	10
38	5642	430.008788273638	7
38	5650	430.618503437231	5
38	5663	431.721555293777	10
38	5677	432.728958995302	9
38	5706	437.3	13
38	5719	438.3	9
38	5726	438.808211029244	4
38	5731	439.113878503574	2
38	5737	439.523426678201	3
38	5749	440.333129977268	7
38	5754	440.635658168653	2
38	5774	444.5	5
38	5781	445.1	5
38	5788	445.6015817383	4
38	5801	446.507895991459	8
38	5809	447.11399712764	5
38	5817	447.718920065199	5
38	5828	448.422925511225	6
38	5866	454.1	21
38	5869	454.3	1
38	5882	455.404288520079	10
38	5894	456.21367938876	7
38	5901	456.721913872697	4
38	5907	457.128314774288	3
38	5914	457.636124526343	4
38	5945	461.3	13
38	5961	462.6	12
38	5972	463.504247152304	8
38	5982	464.110046256116	5
38	5997	465.411599133917	12
38	6010	466.318867189352	8
38	6016	466.72069051615	3
38	6033	468.025285045858	12
38	6045	469.03382656688	9
38	6054	469.740839058914	6
38	6061	470.046491519684	2
38	6072	470.94749648857	8
38	6082	471.74953857065	7
38	6091	472.252485897769	4
38	6113	476.4	4
38	6123	477.3	8
38	6136	478.207736269461	8
38	6143	478.714838719777	4
38	6151	479.323090702234	5
38	6167	480.529391209733	11
38	6178	481.437452992024	8
38	6189	482.140927279624	6
38	6199	482.950902457299	7
38	6222	486.5	5
38	6244	488.4	18
38	6253	489.103102614246	6
38	6266	490.010542676972	8
38	6290	494.6	6
38	6296	495.1	4
38	6304	495.708564491292	5
38	6313	496.214259420096	4
38	6322	496.923682612653	6
38	6330	497.5290820151	5
38	6345	498.634463235274	10
38	6359	499.840496648628	11
38	6386	502.9	9
38	6392	503.4	4
38	6399	503.903949541202	4
38	6411	504.708524025766	7
38	6415	504.916835519248	1
38	6427	505.926405541599	9
38	6441	506.929024655926	9
38	6453	507.938852104868	9
38	6465	508.740495858906	7
38	6475	509.542209033357	7
38	6486	510.244225234278	6
38	6499	511.354067117067	10
38	6515	512.557024714406	11
38	6525	513.362179188366	7
38	6546	516.3	3
38	6560	517.6	12
38	6573	518.50115500889	8
38	6586	519.610102920208	10
38	6590	519.812695498864	1
38	6599	520.321143752848	4
38	6613	521.527403848182	11
38	6619	521.932396847239	3
38	6628	522.440582506923	4
38	6641	523.547125006796	10
38	6661	525.06277642118	14
38	6676	526.16732290272	10
38	6687	527.074965938859	8
38	6702	528.183292198722	10
38	6724	532.5	5
38	6728	532.8	2
38	6735	533.308487723267	4
38	6739	533.515459737866	1
38	6752	534.420985652503	8
38	6769	535.928417618764	14
38	6798	539.1	11
38	6805	539.7	5
38	6816	540.401295167556	6
38	6828	541.403472406134	9
38	6838	542.013336093806	5
38	6846	542.615128722107	5
38	6856	543.416982091767	7
38	6867	544.124890233568	6
38	6877	544.925347420576	7
38	6888	545.828449659429	8
38	6895	546.137373146938	2
38	6923	551	10
38	6927	551.3	2
38	6934	551.806787230053	4
38	6948	552.810928656619	9
38	6957	553.513483739159	6
38	6961	553.721253739349	1
38	6971	554.323483895706	5
38	6995	558.6	6
38	7015	560.3	16
38	7020	560.608619092251	2
38	7025	560.913809389576	2
38	7061	565.8	18
38	7080	567.4	15
38	7096	568.602199351119	11
38	7109	569.706396952289	10
38	7124	570.813048909859	10
38	7137	571.916621604976	10
38	7158	574.3	3
38	7169	575.3	9
38	7181	576.105592043083	7
38	7194	577.207121484931	10
38	7209	578.310072179797	10
38	7222	579.411083065019	10
38	7228	579.811330598184	3
38	7239	580.513482252085	6
38	7249	581.32273702757	7
38	7262	582.225897102747	8
38	7273	583.129601712506	8
38	7283	583.933142068076	7
38	7308	586.7	7
38	7316	587.4	6
38	7323	587.904434712545	4
38	7332	588.406827866101	4
38	7339	588.914676180254	4
38	7345	589.316657912738	3
38	7352	589.823504292843	4
38	7374	592.7	7
38	7383	593.5	7
38	7392	594.009175528439	4
38	7400	594.614897685376	5
38	7410	595.424812957718	7
38	7416	595.827589231942	3
38	7426	596.432644959684	5
38	7435	597.136958237099	6
38	7444	597.839199767696	6
38	7455	598.547000667463	6
38	7481	602.8	8
38	7487	603.3	4
38	7503	604.507272133741	11
38	7509	604.90967281301	3
38	7518	605.611357977399	6
38	7528	606.219992938616	5
38	7541	607.323346061598	10
38	7552	608.025996884893	6
38	7560	608.631528463075	5
38	7586	613	10
38	7594	613.7	6
38	7602	614.105333636892	3
38	7611	614.814901918859	6
38	7622	615.719253028677	8
38	7631	616.227504557072	4
38	7643	617.231967443829	9
38	7652	617.941149436093	6
38	7659	618.250133639045	2
38	7666	618.750521437809	4
38	7672	619.155054765859	3
38	7695	622.5	5
38	7707	623.6	10
38	7715	624.009201518602	3
38	7724	624.716798560267	6
38	7732	625.32618887178	5
38	7739	625.833427403663	4
38	7757	627.240469156872	13
38	7772	628.34548359107	10
38	7780	628.946895514852	5
38	7812	633.4	14
38	7818	633.9	4
38	7826	634.30548637415	3
38	7832	634.71032471751	3
38	7841	635.412887557529	6
38	7857	636.616232489359	11
38	7870	637.723456648087	10
38	7891	640.6	6
38	7902	641.6	9
38	7916	642.609497660151	9
38	7923	643.110896273925	4
38	7930	643.613332966933	4
38	7938	644.02214383249	3
38	7944	644.426254756309	3
38	7953	645.13396091572	6
38	7963	645.943100282119	7
38	7973	646.550690989929	5
38	7982	647.258619924112	6
38	7994	648.060908758564	7
38	8005	648.96920218817	8
38	8025	650.570707142092	15
38	8050	654.7	7
38	8055	655.1	3
38	8063	655.705767411454	5
38	8074	656.412990018603	6
38	8082	657.017078734148	5
38	8089	657.522499120103	4
38	8100	658.223487881275	6
38	8127	663.2	12
38	8139	664.1	8
38	8151	665.103091968519	9
38	8160	665.808571001635	6
38	8172	666.614304545683	7
38	8184	667.618053427402	9
38	8195	668.322166881457	6
38	8204	669.029550399398	6
38	8219	670.130480652853	10
38	8244	674.8	8
38	8262	676.3	14
38	8275	677.408575454922	10
38	8295	679.00867137635	15
38	8306	679.911642019272	8
38	8316	680.514969761365	5
38	8325	681.218134324176	6
38	8346	684.3	3
38	8350	684.6	2
38	8356	685.002237860111	3
38	8371	686.103579392649	10
38	8377	686.508699223757	3
38	8384	687.018196935501	4
38	8395	687.919903714816	8
38	8405	688.527552856591	5
38	8425	692.2	2
38	8433	692.9	6
38	8441	693.503049891991	5
38	8452	694.206070791368	6
38	8459	694.706132593573	4
38	8471	695.708128724947	9
38	8485	696.715752748708	9
38	8505	698.322867025582	15
38	8537	702.7	7
38	8544	703.3	5
38	8551	703.801169952759	4
38	8559	704.211119785513	3
38	8563	704.420773838289	1
38	8568	704.721793864847	2
38	8575	705.223588052683	4
38	8597	707.0262774374	17
38	8605	707.631963750309	5
38	8626	710.3	3
38	8631	710.7	3
38	8638	711.11615598099	3
38	8651	712.016775645335	8
38	8661	712.824272833483	7
38	8672	713.728227791325	8
38	8684	714.53695981054	7
38	8691	715.04471370631	4
38	8729	720	20
38	8741	721.1	10
38	8750	721.802446962799	6
38	8760	722.403635978926	5
38	8767	722.907560704992	4
38	8775	723.515386233598	5
38	8801	725.723266709112	21
38	8805	725.924454528028	1
38	8812	726.227672992844	2
38	8822	727.035322133488	7
38	8828	727.44338579391	3
38	8833	727.752382426153	2
38	8841	728.156686229773	3
38	8847	728.566658718625	3
38	8853	728.971469433225	3
38	8875	732.4	4
38	8879	732.7	2
38	8883	732.909965687885	1
38	8894	733.817396313417	8
38	8919	735.926354786156	20
38	8931	736.732386670388	7
38	8935	736.938998335053	1
38	8942	737.441251038566	4
38	8972	741.2	12
38	8989	742.6	13
38	8998	743.304667469109	6
38	9014	744.507117937898	11
38	9023	745.217075468233	6
38	9043	746.822325060319	15
38	9053	747.623992077282	7
38	9064	748.333978107999	6
38	9069	748.63684906433	2
38	9082	749.746541234272	10
38	9106	752.6	6
38	9118	753.7	10
38	9129	754.406308609712	6
38	9135	754.810813654639	3
38	9143	755.419800598878	5
38	9153	756.022715809948	5
38	9162	756.726341190829	6
38	9181	758.235021793921	14
38	9212	763.5	15
38	9224	764.4	8
38	9235	765.302419195375	8
38	9242	765.805491720987	4
38	9256	766.808488174657	9
38	9273	768.109977281639	12
38	9287	769.31912052033	11
38	9300	770.226737184422	8
38	9310	771.030275306352	7
38	9324	772.035374951888	9
38	9336	773.043593856461	9
38	9362	776.8	8
38	9377	778	11
38	9386	778.70754006132	6
38	9396	779.510294028387	7
38	9408	780.312691623327	7
38	9413	780.617046661771	2
38	9423	781.425583511328	7
38	9441	782.827236970116	13
38	9461	786.2	2
38	9464	786.4	1
38	9472	787.002773122796	5
38	9481	787.710143181913	6
38	9488	788.017204770493	2
38	9501	789.118138338479	10
38	9511	789.920699899804	7
38	9520	790.422695450994	4
38	9525	790.731225741241	2
38	9530	791.03505175211	2
38	9534	791.244093937524	1
38	9539	791.54785747531	2
38	9543	791.754950212062	1
38	9564	794.4	4
38	9571	795	5
38	9580	795.704609143275	6
38	9593	796.614486688275	8
38	9604	797.521353873705	8
38	9615	798.230444618758	6
38	9625	799.032602954552	7
38	9635	799.838551067624	7
38	9690	802.4	4
38	9713	803.5	10
38	9723	803.806864852488	2
38	9745	804.612802967049	7
38	9765	805.41316575802	7
38	9775	806.019572039994	5
38	9788	807.123504369717	10
38	9808	808.726198850671	15
38	9827	812.1	1
38	9834	812.7	5
38	9844	813.509183632722	7
38	9854	814.112262833441	5
38	9864	814.915638066689	7
38	9871	815.422047591205	4
38	9882	816.123573484579	6
38	9894	817.130719169911	9
38	9947	820.5	5
38	9966	821.3	7
38	9985	822.209852015047	8
38	9990	822.51207117349	2
38	9997	823.012483228385	4
38	10004	823.520745957014	4
38	10013	824.025228553288	4
38	10019	824.429471051904	3
38	10042	828.7	7
38	10048	829.2	4
38	10057	829.908461742987	6
38	10069	830.714937037552	7
38	10076	831.220717916252	4
38	10083	831.724754280546	4
38	10091	832.134527888417	3
38	10115	834.136938877464	19
38	10122	834.639223865486	4
38	10131	835.347539445216	6
38	10161	839.2	12
38	10174	840.2	9
38	10180	840.609916899015	3
38	10190	841.410012052025	7
38	10201	842.116821941156	6
38	10212	843.024929717306	8
38	10235	846.5	5
38	10244	847.3	7
38	10260	848.50223744627	11
38	10266	848.90247675266	3
38	10271	849.202694156531	2
38	10277	849.610410791062	3
38	10289	850.41825111172	7
38	10316	854.9	9
38	10321	855.3	3
38	10327	855.701387953241	3
38	10339	856.414791858123	6
38	10346	856.916424308981	4
38	10351	857.223357432156	2
38	10360	857.932085704533	6
38	10368	858.338778235485	3
38	10379	859.244058052055	8
38	10385	859.649504460252	3
38	10410	862.8	8
38	10416	863.3	4
38	10427	864.000356280999	6
38	10433	864.405166268776	3
38	10440	864.906876413169	4
38	10447	865.409844536305	4
38	10454	865.910499714378	4
38	10463	866.418956355448	4
38	10487	870.6	6
38	10496	871.4	7
38	10507	872.10087947085	6
38	10515	872.708116722823	5
38	10522	873.211154972323	4
38	10531	873.912246375024	6
38	10549	875.316016402801	13
38	10562	876.225242485986	8
38	10573	877.127109858835	8
38	10583	877.931626714976	7
38	10595	878.736787239632	7
38	10604	879.440297235629	6
38	10619	880.540452966318	10
38	10626	881.044754391008	4
38	10659	885.5	15
38	10671	886.4	8
38	10677	886.808488975511	3
38	10683	887.212541034262	3
38	10690	887.716860474469	4
38	10702	888.523506577061	7
38	10710	889.132428429841	5
38	10747	893.9	19
38	10762	895.1	11
38	10771	895.800463231389	6
38	10779	896.207798283122	3
38	10802	900.5	5
38	10808	901	4
38	10814	901.401930588993	3
38	10830	902.607573390518	11
38	10842	903.617282084856	9
38	10854	904.423214716816	7
38	10860	904.827841964371	3
38	10871	905.734158635376	8
38	10893	907.543991211479	17
38	10909	908.660185389982	10
38	10960	912.5	5
38	10974	913.108560260813	5
38	10988	914.10913506986	9
38	10997	914.813098288512	6
38	11006	915.519121948227	6
38	11016	916.11966171982	5
38	11028	917.121792937822	9
38	11058	921.5	15
38	11071	922.5	9
38	11078	923.001119749785	4
38	11096	924.405319886479	13
38	11110	925.609405903617	11
38	11121	926.316960771152	6
38	11145	930.6	6
38	11154	931.4	7
38	11168	932.408119101813	9
38	11177	933.116172471954	6
38	11187	933.923491689951	7
38	11196	934.424263575416	4
38	11202	934.826285031332	3
38	11228	939.1	11
38	11237	939.9	7
38	11244	940.208655701247	2
38	11256	941.214750956236	9
38	11271	942.32449712583	10
38	11284	943.430515855503	10
38	11303	944.940381057445	14
38	11312	945.643215983252	6
38	11323	946.349240148161	6
38	11341	950	0
38	11347	950.5	4
38	11360	951.607854863549	10
38	11370	952.213840042317	5
38	11381	953.116434566529	8
38	11394	954.017968429498	8
38	11402	954.626024307083	5
38	11410	955.235801001189	5
38	11422	956.043082698213	7
38	11448	961	10
38	11457	961.8	7
38	11465	962.202065819024	3
38	11481	963.605290549927	13
38	11511	966.007270330429	23
38	11524	967.114646955438	10
38	11555	971.4	14
38	11567	972.5	10
38	11573	972.900940353358	3
38	11581	973.505820303186	5
38	11588	974.007065201305	4
38	11599	974.915679951197	8
38	11606	975.419017504899	4
