version 2
run Join-66-20130520-16:32:51-32715
attr configname Join
attr datetime 20130520-16:32:51
attr experiment "\"Join\""
attr inifile omnetpp.ini
attr iterationvars $0=2048
attr iterationvars2 "$0=2048, $repetition=6"
attr measurement $0=2048
attr network Network
attr processid 32715
attr repetition 6
attr replication #6
attr resultdir results
attr runnumber 66
attr seedset 66

vector 66  Network.dyn_peer[0]  lookupHopsSig:vector  ETV
66	5925	21.503503753137	19
66	5958	24.209722956481	26
66	5990	27.014105335065	27
66	6014	29.015465029492	19
66	6036	30.818285284314	17
66	6055	32.324445928301	14
66	6098	36.030964367821	36
66	6102	36.231731944589	1
66	6152	43	30
66	6160	43.7	6
66	6195	46.606698049986	28
66	6213	48.009888087002	13
66	6231	49.614359010249	15
66	6252	51.318040134511	16
66	6273	53.026190171572	16
66	6294	54.733677847138	16
66	6315	56.43775531534	16
66	6326	57.343662052381	8
66	6352	61	10
66	6372	62.7	16
66	6379	63.205195863079	4
66	6400	64.90655220746	16
66	6422	66.716119029069	17
66	6446	68.726082814781	19
66	6460	69.929573075483	11
66	6498	73.138679216546	31
66	6519	74.840714176737	16
66	6527	75.449028967087	5
66	6581	81.4	34
66	6598	82.8	13
66	6618	84.404821306562	15
66	6643	86.514210306279	20
66	6671	88.914960681785	23
66	6703	91.72128213607	27
66	6734	94.223466213217	24
66	6746	95.233153491483	9
66	6889	102.9	49
66	6934	104.9	19
66	6980	106.906141674534	19
66	7040	109.608424889211	26
66	7100	112.310428828155	26
66	7128	114.713603633351	23
66	7151	116.617516027709	18
66	7173	118.426008684725	17
66	7209	123.8	18
66	7224	125	11
66	7255	127.705587652854	26
66	7297	131.312171844616	35
66	7323	133.522164631501	21
66	7348	135.625477021426	20
66	7364	136.826981760106	11
66	7386	138.628792001428	17
66	7407	140.33099889235	16
66	7444	143.633089003317	32
66	7469	145.741109467238	20
66	7493	147.744443360765	19
66	7510	149.049462894611	12
66	7528	150.457178183814	13
66	7556	152.864756249158	23
66	7585	155.370472803093	24
66	7631	160.7	27
66	7650	162.3	15
66	7672	164.1024589053	17
66	7707	167.206956157227	30
66	7721	168.214870566675	9
66	7746	170.315814112311	20
66	7775	172.817991175491	24
66	7801	177.1	11
66	7823	179	18
66	7846	180.907507189728	18
66	7872	183.115005386266	21
66	7896	185.124554201598	19
66	7919	187.03335153752	18
66	7941	188.835192683085	17
66	7997	195.9	39
66	8008	196.7	7
66	8033	198.804746425214	20
66	8059	201.008981780164	21
66	8084	203.118460520162	20
66	8104	204.72244607938	15
66	8156	209.328851523231	45
66	8164	209.930309609113	5
66	8181	211.230953590901	12
66	8209	213.63451534472	23
66	8286	217.9	19
66	8321	219.5	15
66	8367	221.809281653875	22
66	8409	225.41803560159	35
66	8444	228.320401062006	28
66	8478	233.6	16
66	8516	236.9	32
66	8556	240.308033517594	33
66	8571	241.60975444748	12
66	8610	244.912875909073	32
66	8651	248.418471175559	34
66	8687	251.625042369806	31
66	8731	255.431859121867	37
66	8777	260.6	26
66	8800	262.6	19
66	8823	264.508111635262	18
66	8838	265.815554368013	12
66	8861	267.721346886573	18
66	8882	269.422205946844	16
66	8908	271.628086844263	21
66	8955	277	30
66	8973	278.5	14
66	8995	280.305973816164	17
66	9013	281.910376452739	15
66	9027	282.92024066028	9
66	9042	284.023216699525	10
66	9066	286.030149033677	19
66	9096	288.632699660006	25
66	9125	291.138086105044	24
66	9166	294.639598026724	34
66	9247	298.7	7
66	9310	301.6	28
66	9358	303.709919431381	20
66	9378	304.510660865166	7
66	9398	305.31856754717	7
66	9406	305.622396440369	2
66	9442	307.222412986716	15
66	9486	309.124921508138	18
66	9512	310.233023405023	10
66	9565	312.539565432669	22
66	9582	313.242681275947	6
66	9617	316.143612068941	28
66	9642	318.248331123944	20
66	9653	319.148818961677	8
66	9680	321.457360457465	22
66	9713	325.6	16
66	9729	326.9	12
66	9761	329.708611386856	27
66	9776	330.817483145876	10
66	9799	332.724215571835	18
66	9820	334.427979863953	16
66	9855	337.535004027358	30
66	9877	339.335409023475	17
66	9970	344.5	25
66	10023	346.8	22
66	10035	347.301125632037	4
66	10077	349.107876658806	17
66	10117	351.408371362246	22
66	10156	354.710712786656	32
66	10195	358.015765318052	32
66	10205	358.819337279653	7
66	10218	359.928772834353	10
66	10245	362.032864400839	20
66	10280	367.7	17
66	10288	368.2	4
66	10317	370.708274360815	24
66	10329	371.712664783498	9
66	10346	373.017064025622	12
66	10355	373.718963624759	6
66	10370	374.820140838744	10
66	10390	376.423953403588	15
66	10416	378.626788940149	21
66	10431	379.927024453546	12
66	10450	381.43222374832	14
66	10479	383.936725991905	24
66	10502	386.7	7
66	10537	389.9	31
66	10559	391.709401785861	17
66	10573	392.718155500338	9
66	10600	395.023854635298	22
66	10632	397.827746667206	27
66	10642	398.435545914062	5
66	10694	403.040979208797	45
66	10699	403.344821272345	2
66	10715	404.553752747927	11
66	10740	406.66298167429	20
66	10754	407.872816690623	11
66	10785	410.373101127994	24
66	10847	416.6	26
66	10860	417.8	11
66	10882	419.600512899232	17
66	10902	421.209373893029	15
66	10921	422.714341692592	14
66	10940	424.215230735706	14
66	10950	425.015493097442	7
66	10992	430.5	25
66	11025	433.5	29
66	11060	436.408231709566	28
66	11072	437.414774129967	9
66	11105	440.117719409222	26
66	11110	440.4272103085	2
66	11140	443.036218235397	25
66	11168	445.446040511093	23
66	11205	448.5509490362	30
66	11214	449.253582925845	6
66	11235	450.960628195267	16
66	11244	451.666163606619	6
66	11277	455.6	16
66	11311	458.5	28
66	11324	459.600986219756	10
66	11346	461.406257269831	17
66	11369	463.306539182862	18
66	11395	465.509012233834	21
66	11411	466.717161807143	11
66	11439	469.121902737272	23
66	11474	472.024387194578	28
66	11489	473.329368581132	12
66	11523	476.134263302295	27
66	11617	484.541381522426	83
66	11644	488.9	9
66	11691	493.1	41
66	11728	496.202646035216	30
66	11756	498.605613011034	23
66	11782	500.815210322144	21
66	11788	501.222140040609	3
66	11823	504.125748544553	28
66	11848	506.235675496942	20
66	11892	512.6	26
66	11913	514.4	17
66	11941	516.808223087755	23
66	11954	517.914102332785	10
66	11983	520.219774755129	22
66	12007	522.227800652844	19
66	12014	522.731817346113	4
66	12045	525.436531698538	26
66	12069	527.442971174641	19
66	12097	531.2	12
66	12110	532.2	9
66	12150	535.809986919821	35
66	12207	540.71947197914	48
66	12237	543.32796679921	25
66	12276	546.637506374949	32
66	12296	548.245597144229	15
66	12318	550.055545935734	17
66	12342	552.059679275267	19
66	12356	553.259809959754	11
66	12389	557.5	15
66	12422	560.3	27
66	12454	563.102450971514	27
66	12476	564.909034741326	17
66	12509	567.811009787456	28
66	12532	569.719580647079	18
66	12553	571.427766677664	16
66	12589	574.434205579311	29
66	12613	576.443873609833	19
66	12618	576.744529970365	2
66	12652	581.6	16
66	12681	584	23
66	12687	584.405651150909	3
66	12697	585.215625064952	7
66	12710	586.116886504624	8
66	12746	591.8	18
66	12757	592.6	7
66	12787	595.209735740642	25
66	12803	596.41413531118	11
66	12809	596.822255006203	3
66	12816	597.330106926286	4
66	12837	599.037663219247	16
66	12845	599.63771239004	5
66	12855	600.246119869818	5
66	12888	605.7	17
66	12930	609.4	36
66	12967	612.500307881552	30
66	12977	613.308567321153	7
66	12990	614.213408007504	8
66	13017	616.521529305755	22
66	13062	620.423327955772	38
66	13191	626.6	26
66	13226	628.1	14
66	13258	629.507170209286	13
66	13298	631.5108553617	19
66	13317	633.01733427537	14
66	13350	635.925632243467	28
66	13373	637.827100811091	18
66	13383	638.435132566711	5
66	13413	641.040228925433	25
66	13450	644.146134854047	30
66	13460	644.953004958079	7
66	13470	645.76059706848	7
66	13493	647.670048752598	18
66	13506	648.576017185986	8
66	13549	654.3	23
66	13582	657.3	29
66	13597	658.401599676653	10
66	13618	660.108289720986	16
66	13650	662.912594414839	27
66	13662	663.917621576333	9
66	13694	666.52298263111	25
66	13730	669.73189403903	31
66	13766	672.733261831498	29
66	13821	677.635165691692	48
66	13845	680.6	6
66	13875	683.3	26
66	13882	683.802903509458	4
66	13907	685.905828007409	20
66	13931	687.906583761298	19
66	13972	691.413166018254	34
66	14014	695.022228393503	35
66	14042	697.430537467035	23
66	14071	699.936318660336	24
66	14097	703	10
66	14115	704.5	14
66	14135	706.10666183544	15
66	14167	708.916181816096	27
66	14189	710.718091796266	17
66	14211	712.518932089777	17
66	14232	714.226840885036	16
66	14259	716.533349966342	22
66	14284	718.642650676733	20
66	14315	721.343500112637	26
66	14342	723.65192942358	22
66	14377	726.559846284064	28
66	14403	728.761870434466	21
66	14435	731.566277996283	27
66	14470	734.466980420965	28
66	14503	739.5	15
66	14520	740.9	13
66	14559	744.203875138121	32
66	14627	750.205002000701	59
66	14675	754.406171386441	41
66	14723	760.8	28
66	14743	762.5	16
66	14779	765.702736680821	31
66	14815	768.704213033482	29
66	14848	771.612849828736	28
66	14858	772.218475064437	5
66	14881	774.124489377475	18
66	14901	775.926226908335	17
66	14935	778.730060459045	27
66	14968	781.639054168288	28
66	15036	787.639205172641	59
66	15119	792.1	21
66	15158	793.9	17
66	15202	795.800353425883	18
66	15262	798.404334210871	25
66	15320	800.906779818673	24
66	15345	803.012682283111	20
66	15364	804.51663658576	14
66	15385	806.225143624052	16
66	15402	807.732541940495	14
66	15436	810.532617757167	27
66	15543	817.1	31
66	15570	818.3	11
66	15600	819.609209609837	12
66	15657	824.516174806712	48
66	15681	826.518718904735	19
66	15703	828.324435693976	17
66	15725	830.125102823516	17
66	15743	831.733068604643	15
66	15759	832.942066097556	11
66	15780	834.645599864745	16
66	15804	838.7	7
66	15822	840.2	14
66	15836	841.40093099259	11
66	15847	842.107799408968	6
66	15865	843.708467651832	15
66	15885	845.312088202129	15
66	15899	846.321465809757	9
66	15917	847.930694948008	15
66	15946	851.1	11
66	15974	853.6	24
66	15998	855.600106435136	19
66	16012	856.609914438076	9
66	16018	857.012683814811	3
66	16042	859.019388350481	19
66	16063	860.720864376905	16
66	16087	862.722261825899	19
66	16129	866.329761965127	35
66	16153	868.330987521052	19
66	16174	870.036479088881	16
66	16209	873.142576695643	30
66	16250	878.1	21
66	16281	880.9	27
66	16315	883.907799295594	29
66	16349	886.714199333905	27
66	16372	888.616221774003	18
66	16408	891.82337427273	31
66	16436	894.031385105164	21
66	16452	895.435697811455	13
66	16469	896.738893361652	12
66	16501	899.548118818182	27
66	16524	901.449485517806	18
66	16563	904.757959560184	32
66	16595	907.567689642589	27
66	16606	908.276054754473	6
66	16641	913.7	17
66	16698	918.7	49
66	16707	919.401011191452	6
66	16733	921.60691420571	21
66	16757	923.60780009137	19
66	16782	925.708450336845	20
66	16803	927.414509792637	16
66	16826	929.32445828905	18
66	16908	934.7	27
66	16933	936.9	21
66	16950	938.204112013631	12
66	16966	939.612189012965	13
66	16982	940.820204626888	11
66	16991	941.528049187844	6
66	17002	942.236473448651	6
66	17017	943.538338055878	12
66	17035	944.945200356987	13
66	17043	945.548690598052	5
66	17064	947.255088435857	16
66	17126	952.3	23
66	17138	953.4	10
66	17161	955.303895717896	18
66	17189	957.711928366734	23
66	17207	959.115360365597	13
66	17238	961.821135296852	26
66	17271	964.52975223158	26
66	17302	967.231876323483	26
66	17325	969.13984974152	18
66	17365	972.543864867787	33
66	17375	973.345266578406	7
66	17422	978.7	27
66	17449	981.1	23
66	17454	981.404549030207	2
66	17489	984.311666457284	28
66	17519	986.918216538162	25
66	17539	988.52538512591	15
66	17567	990.926447154816	23
66	17585	992.332174893214	13
66	17593	992.940512380259	5
66	17619	995.150106140313	21
66	17623	995.351331457205	1
66	17643	996.958947698674	15
66	17684	1000.463931366263	34
66	17718	1005.6	16
66	17749	1008.2	25
66	17798	1012.507139592978	42
66	17833	1015.615278901659	30
66	17865	1018.218610301957	25
66	17883	1019.826160463412	15
66	17894	1020.53130064203	6
66	17910	1021.937873363546	13
66	17948	1025.138951420143	31
66	17999	1031.3	33
66	18013	1032.4	10
66	18065	1037.007785316391	45
66	18082	1038.312029133399	12
66	18125	1042.017582997481	36
66	18157	1044.823318940679	27
66	18177	1046.425000598815	15
66	18189	1047.433357002807	9
66	18199	1048.040608471058	5
66	18213	1049.247231202457	11
66	18334	1055.8	38
66	18371	1058.3	24
66	18383	1059.306254543173	9
66	18412	1061.815177889654	24
66	18429	1063.120234074642	12
66	18456	1065.428887485431	22
66	18504	1069.630309711028	41
66	18527	1071.537578054423	18
66	18541	1072.545992037857	9
66	18564	1074.450013730396	18
66	18587	1076.359849461084	18
66	18605	1077.963016812193	15
66	18652	1082.7	27
66	18662	1083.6	8
66	18680	1085.00315509611	13
66	18710	1087.605305145207	25
66	18730	1089.205909858889	15
66	18757	1091.515182952988	22
66	18772	1092.616455247229	10
66	18793	1094.316596077067	16
66	18822	1096.81884387744	24
66	18826	1097.028284611602	1
66	18862	1101.8	18
66	18883	1103.6	17
66	18891	1104.005864262196	3
66	18907	1105.406018119367	13
66	18926	1106.913250134939	14
66	18952	1109.118050292865	21
66	18987	1113.7	17
66	19006	1115.3	15
66	19028	1117.109013604966	17
66	19043	1118.213734591686	10
66	19053	1119.018923294585	7
66	19077	1121.027212585551	19
66	19095	1122.434045604537	13
66	19116	1124.13939416615	16
66	19139	1126.048202913952	18
66	19157	1127.65220639217	15
66	19223	1134.4	44
66	19256	1137.4	29
66	19274	1138.801902461077	13
66	19293	1140.309743720488	14
66	19308	1141.61070439224	12
66	19329	1143.318492521549	16
66	19342	1144.220767673855	8
66	19374	1149.7	17
66	19399	1151.9	21
66	19444	1155.806950554775	38
66	19517	1162.116908699934	62
66	19534	1163.620185351961	14
66	19549	1164.729456947716	10
66	19568	1166.237042501375	14
66	19576	1166.841483069541	5
66	19589	1167.946032071368	10
66	19616	1170.050763390118	20
66	19647	1175.4	14
66	19685	1178.7	32
66	19709	1180.708154897368	19
66	19726	1182.01749907947	12
66	19753	1184.318608444531	22
66	19771	1185.9194704344	15
66	19807	1188.923250957244	29
66	19824	1190.231458792934	12
66	19839	1191.539235031489	12
66	19855	1192.740177293662	11
66	19882	1195.042741365861	22
66	19947	1200.2	22
66	19981	1203.3	30
66	20001	1204.907840027341	15
66	20019	1206.315459654433	13
66	20148	1214.1	41
66	20164	1214.8	6
66	20184	1216.409171050665	15
66	20191	1216.913897971323	4
66	20216	1219.014400968731	20
66	20255	1222.319178297249	32
66	20280	1224.422535077316	20
66	20288	1225.024714171764	5
66	20295	1225.531508784097	4
66	20304	1226.034131352068	4
66	20317	1227.143204106912	10
66	20342	1230.7	7
66	20367	1232.9	21
66	20397	1235.501132187987	25
66	20413	1236.710875754907	11
66	20427	1237.920443426881	11
66	20468	1241.42750988177	34
66	20483	1242.537357072981	10
66	20497	1243.7445136223	11
66	20507	1244.351293034035	5
66	20562	1251.7	37
66	20584	1253.6	18
66	20603	1255.104376878826	14
66	20633	1257.707298179992	25
66	20649	1258.91707441819	11
66	20674	1261.025427893282	20
66	20697	1262.930287130156	18
66	20707	1263.735628447197	7
66	20711	1263.941343599522	1
66	20740	1267.1	11
66	20760	1268.8	16
66	20804	1272.607986419752	37
66	20840	1275.810905119783	31
66	20850	1276.417579222481	5
66	20887	1281.9	19
66	20897	1282.6	6
66	20911	1283.809887200752	11
66	20931	1285.416181413517	15
66	20944	1286.326110274407	8
66	20976	1289.132967721032	27
66	20995	1290.639172332574	14
66	21007	1291.639352219762	9
66	21041	1294.445355266736	27
66	21067	1296.655223106982	21
66	21116	1302.9	29
66	21121	1303.3	3
66	21137	1304.50181871745	11
66	21160	1306.408012839718	18
66	21186	1308.614005989794	21
66	21234	1312.82196726338	41
66	21261	1315.128238128193	22
66	21300	1318.436210755498	32
66	21311	1319.337338648186	8
66	21326	1320.441021439264	10
66	21341	1321.748542158713	12
66	21382	1325.252744230208	34
66	21437	1331.5	35
66	21483	1335.6	40
66	21525	1339.200353992788	35
66	21549	1341.209470820777	19
66	21587	1344.412780896337	31
66	21607	1346.014566305643	15
66	21634	1348.317280164337	22
66	21652	1349.919969452313	15
66	21672	1351.522796262545	15
66	21712	1356.1	21
66	21731	1357.9	17
66	21751	1359.500063948952	15
66	21765	1360.506805724466	9
66	21780	1361.814345283114	12
66	21805	1363.923178253133	20
66	21857	1368.327942958214	43
66	21889	1371.133423543475	27
66	21912	1373.03403757798	18
66	21944	1375.841464973503	27
66	21955	1376.541816318359	6
66	21984	1379.047258085063	24
66	22049	1386.3	43
66	22079	1389	26
66	22098	1390.505861588618	14
66	22135	1393.813411529806	32
66	22157	1395.615731342499	17
66	22200	1399.32363174511	36
66	22220	1400.931644878544	15
66	22261	1406.1	21
66	22283	1408	18
66	22330	1412.104035353441	40
66	22385	1417.005437343978	48
66	22399	1418.008475383602	9
66	22410	1418.91473515857	8
66	22481	1426.9	49
66	22495	1428	10
66	22513	1429.602113277425	15
66	22524	1430.308715761131	6
66	22551	1432.614046988242	22
66	22561	1433.4229633785	7
66	22594	1436.130181247518	26
66	22619	1438.232151664095	20
66	22646	1440.533690245666	22
66	22654	1441.134264466634	5
66	22673	1442.638188615119	14
66	22714	1448.1	21
66	22737	1450.1	19
66	22744	1450.605965230308	4
66	22773	1453.112803400937	24
66	22802	1455.614362930783	24
66	22819	1456.923014691597	12
66	22846	1459.227164449029	22
66	22870	1461.227631694014	19
66	22906	1464.234058589342	29
66	22946	1467.843656263396	35
66	22967	1469.547296603203	16
66	22988	1471.252141089609	16
66	23008	1472.860055714503	15
66	23036	1475.267802038788	23
66	23119	1480	20
66	23130	1480.5	4
66	23164	1482.000786100586	14
66	23196	1484.201425987321	21
66	23225	1486.705314049408	24
66	23247	1488.508924613016	17
66	23260	1489.610063347626	10
66	23309	1493.914480262424	42
66	23364	1499.5	35
66	23388	1501.6	20
66	23399	1502.308712216268	6
66	23420	1504.015187446048	16
66	23456	1507.215676838722	31
66	23464	1507.816665277631	5
66	23495	1511.3	13
66	23532	1514.5	31
66	23556	1516.503704937617	19
66	23575	1518.006987583161	14
66	23602	1520.30754965267	22
66	23616	1521.511871569613	11
66	23643	1523.819634546577	22
66	23674	1527.6	16
66	23699	1529.8	21
66	23715	1531.002898243933	11
66	23735	1532.605848043791	15
66	23783	1536.814938783316	41
66	23809	1539.020405691669	21
66	23836	1541.327101238849	22
66	23863	1543.633867609367	22
66	23890	1545.942237547725	22
66	23904	1546.948440883183	9
66	23933	1549.452153902025	24
66	23991	1553	10
66	24030	1554.8	17
66	24074	1556.702712324892	18
66	24097	1557.611800505243	8
66	24131	1559.121351758941	14
66	24165	1560.528926603338	13
66	24187	1561.433086743657	8
66	24208	1562.740041059655	12
66	24251	1568.5	25
66	24294	1572.3	37
66	24321	1574.606326080991	22
66	24366	1578.515683801578	38
66	24397	1581.220172380296	26
66	24437	1584.622998129679	33
66	24460	1586.528220698302	18
66	24487	1588.828310504096	22
66	24529	1592.435334388659	35
66	24563	1595.441211440932	29
66	24602	1598.744060938885	32
66	24625	1600.647023149009	18
66	24658	1603.550158356488	28
66	24686	1605.958203325028	23
66	24736	1611.1	31
66	24762	1613.4	22
66	24782	1615.008358925415	15
66	24800	1616.418055119229	13
66	24810	1617.222070991386	7
66	24822	1618.030009258774	7
66	24843	1619.932546743254	18
66	24872	1623.4	14
66	24899	1625.8	23
66	24928	1628.103169190986	22
66	24959	1630.803790051934	26
66	24994	1635.7	17
66	25014	1637.4	16
66	25037	1639.30490228899	18
66	25076	1642.607436170435	32
66	25083	1643.114534352092	4
66	25100	1644.41915535843	12
66	25107	1644.922021538133	4
66	25118	1645.830468519145	8
66	25150	1648.43525079022	25
66	25176	1652.8	8
66	25188	1653.9	10
66	25200	1654.707636581803	7
66	25213	1655.809433405338	10
66	25246	1658.51720392726	26
66	25270	1660.524797541423	19
66	25292	1664.4	4
66	25317	1666.6	21
66	25332	1667.903351817997	12
66	25351	1669.407758318178	14
66	25374	1671.316812496261	18
66	25403	1673.820438504781	24
66	25452	1678.9	29
66	25481	1681.5	25
66	25501	1683.102154935395	15
66	25510	1683.808743929044	6
66	25555	1688.5	25
66	25573	1690	14
66	25593	1691.808159213524	17
66	25613	1693.416292063572	15
66	25639	1695.616360991796	21
66	25669	1698.02289850479	23
66	25724	1702.8	8
66	25779	1705.2	23
66	25823	1707.000830822889	17
66	25835	1707.502882372051	4
66	25861	1708.611863621863	10
66	25893	1711.020410642394	23
66	25911	1712.429781202311	13
66	25949	1715.832517650293	33
66	25979	1718.23551174205	23
66	26100	1725.6	36
66	26145	1727.7	20
66	26161	1728.202419878214	4
66	26251	1732.003578448502	37
66	26291	1733.812467943776	17
66	26328	1736.519172073289	26
66	26360	1739.32239564341	27
66	26415	1745.5	35
66	26434	1747.1	15
66	26453	1748.606928110728	14
66	26462	1749.307696503098	6
66	26481	1750.810660401482	14
66	26505	1752.81945283956	19
66	26556	1757.328106534603	44
66	26563	1757.832967387149	4
66	26576	1758.73491240923	8
66	26585	1759.442375797109	6
66	26606	1761.146064362638	16
66	26615	1761.85530914858	6
66	26634	1763.359061353164	14
66	26697	1770.2	42
66	26718	1772	17
66	26728	1772.808042870638	7
66	26747	1774.310163289789	14
66	26775	1776.713630209212	23
66	26811	1779.91970449344	31
66	26829	1781.328515223818	13
66	26863	1784.138003570131	27
66	26896	1787.047480729649	28
66	26904	1787.652758631383	5
66	26921	1788.958295488548	12
66	26931	1789.764656202382	7
66	26978	1794.8	28
66	27009	1797.6	27
66	27029	1799.209030988335	15
66	27049	1800.81338973622	15
66	27081	1803.620508784951	27
66	27113	1806.220720214996	25
66	27149	1809.42733075918	31
66	27189	1812.830279674968	33
66	27227	1816.03816332675	31
66	27256	1818.54456884269	24
66	27282	1822.8	8
66	27299	1824.2	13
66	27307	1824.807133154217	5
66	27319	1825.808776751612	9
66	27336	1827.116737317202	12
66	27345	1827.817815339349	6
66	27358	1828.72434791259	8
66	27388	1833.5	15
66	27408	1835.2	16
66	27417	1835.905467509438	6
66	27436	1837.406360424581	14
66	27473	1840.511065536177	30
66	27493	1842.115992751103	15
66	27512	1843.820710543727	16
66	27540	1847.3	13
66	27566	1849.6	22
66	27619	1854.10555792523	44
66	27636	1855.608754043499	14
66	27656	1857.212457582265	15
66	27712	1862.01566939493	47
66	27739	1864.320426281286	22
66	27771	1869.4	14
66	27783	1870.3	8
66	27793	1871.10031260977	7
66	27813	1872.706585033081	15
66	27834	1874.412670767383	16
66	27856	1876.21297948872	17
66	27872	1877.618188569352	13
66	27935	1884.4	44
66	27942	1885	5
66	27974	1887.802815774236	27
66	27981	1888.112584950478	2
66	27996	1889.416526962624	12
66	28025	1891.923691832027	24
66	28063	1895.125837502637	31
66	28088	1897.227080920219	20
66	28116	1899.632370657626	23
66	28172	1905.6	36
66	28213	1909.2	35
66	28258	1913.108805996291	38
66	28294	1916.114183883799	29
66	28327	1919.019558532635	28
66	28373	1923.023190312819	39
66	28388	1924.130383067881	10
66	28428	1927.732326613012	35
66	28465	1930.838144739553	30
66	28506	1934.346912358997	34
66	28553	1940.7	27
66	28577	1942.8	20
66	28597	1944.401250852574	15
66	28618	1946.106919840887	16
66	28678	1951.5141316357	53
66	28712	1954.317585980387	27
66	28738	1956.527259175556	21
66	28760	1958.331487882977	17
66	28794	1961.332569511247	29
66	28818	1963.336276014361	19
66	28855	1966.444016064198	30
66	28892	1969.74777998517	32
66	28930	1972.954655685985	31
66	28971	1978.1	21
66	28979	1978.8	6
66	29012	1981.708594367271	28
66	29029	1983.016571277701	12
66	29053	1985.025131661661	19
66	29072	1986.529459345666	14
66	29077	1986.837485236659	2
66	29096	1988.338434047927	14
66	29113	1989.839821298476	14
66	29160	1993.941343529435	40
66	29190	1997.2	12
66	29216	1999.5	22
66	29275	2004.602661960828	50
66	29295	2006.204093061592	15
66	29322	2008.513287476896	22
66	29351	2011.018672469285	24
66	29371	2012.626258718619	15
66	29390	2014.128414407296	14
66	29402	2015.13714994183	9
66	29421	2016.637864024957	14
66	29426	2016.942289622562	2
66	29463	2020.050733494135	30
66	29493	2022.652700646981	25
66	29533	2026.053191122105	33
66	29583	2033.1	31
66	29607	2035.2	20
66	29628	2036.900109818242	16
66	29644	2038.108286146153	11
66	29679	2041.209981471685	30
66	29702	2043.115388774395	18
66	29737	2046.020679812105	28
66	29798	2051.1	11
66	29833	2052.6	14
66	29869	2054.109571801591	14
66	29905	2055.710023176161	15
66	29949	2057.615724667679	18
66	29991	2059.420814177813	17
66	30040	2064.9	29
66	30066	2067.2	22
66	30093	2069.506189549921	22
66	30113	2071.108575567262	15
66	30155	2074.710774355855	35
66	30175	2076.315654335276	15
66	30184	2077.022268738297	6
66	30206	2078.829860055106	17
66	30226	2080.439038126842	15
66	30270	2084.241573000208	37
66	30288	2085.848399289676	15
66	30307	2087.352016515628	14
66	30326	2088.855870830801	14
66	30367	2094.2	22
66	30391	2096.3	20
66	30407	2097.706209744706	13
66	30425	2099.106371351603	13
66	30441	2100.310427391039	11
66	30449	2100.919230121764	5
66	30469	2102.523817693634	15
66	30493	2104.529837669239	19
66	30519	2106.736268106745	21
66	30570	2113.1	31
66	30590	2114.8	16
66	30595	2115.10514584569	2
66	30611	2116.31077853247	11
66	30639	2118.7136240134	23
66	30656	2120.014274444748	12
66	30669	2121.118979116466	10
66	30699	2123.723751549326	25
66	30727	2127	10
66	30751	2129.1	20
66	30766	2130.208824116599	10
66	30784	2131.816982574416	15
66	30808	2133.821648592087	19
66	30843	2137.7	17
66	30854	2138.5	7
66	30860	2138.901202843154	3
66	30884	2140.901268442766	19
66	30896	2141.903003903901	9
66	30926	2144.305953447417	23
66	30937	2145.206719022836	8
66	30966	2147.714666667087	24
66	30998	2150.321699885812	25
66	31006	2150.923651416287	5
66	31032	2155.1	11
66	31062	2158	28
66	31093	2160.905805946532	28
66	31121	2163.511699821648	25
66	31138	2165.015331871387	14
66	31171	2168.119894484023	30
66	31199	2170.721305150429	25
66	31224	2173.022008655781	22
66	31246	2175.029914245297	19
66	31273	2177.539261572988	24
66	31290	2179.043029722001	14
66	31306	2180.445760562948	13
66	31329	2182.553327426255	20
66	31351	2184.561258852892	19
