file 22038 1369149732                                           
version 2
run Join-36-20130520-16:32:18-32715
attr configname Join
attr datetime 20130520-16:32:18
attr experiment "\"Join\""
attr inifile omnetpp.ini
attr iterationvars $0=256
attr iterationvars2 "$0=256, $repetition=6"
attr measurement $0=256
attr network Network
attr processid 32715
attr repetition 6
attr replication #6
attr resultdir results
attr runnumber 36
attr seedset 36
vector 36  Network.dyn_peer[0]  lookupHopsSig:vector  ETV
36	441 21597 958 11923 20.331101932779 1014.129626564431 874 1 24 6255 58507
