version 2
run Stability-102-20130526-18:53:57-1898
attr configname Stability
attr datetime 20130526-18:53:57
attr experiment Stability
attr inifile omnetpp.ini
attr iterationvars $0=1e-4
attr iterationvars2 "$0=1e-4, $repetition=2"
attr measurement $0=1e-4
attr network Network
attr processid 1898
attr repetition 2
attr replication #2
attr resultdir results
attr runnumber 102
attr seedset 102

vector 9990  Network.churner  inGoingSizeSig:vector  ETV
vector 9897  Network.dyn_peer[1]  lookupHopsSig:vector  ETV
vector 9898  Network.dyn_peer[1]  lookupStabilitySig:vector  ETV
vector 9899  Network.dyn_peer[1]  lookupTimeSig:vector  ETV
vector 9921  Network.dyn_peer[9]  lookupHopsSig:vector  ETV
vector 9922  Network.dyn_peer[9]  lookupStabilitySig:vector  ETV
vector 9923  Network.dyn_peer[9]  lookupTimeSig:vector  ETV
vector 9960  Network.dyn_peer[22]  lookupHopsSig:vector  ETV
vector 9961  Network.dyn_peer[22]  lookupStabilitySig:vector  ETV
vector 9962  Network.dyn_peer[22]  lookupTimeSig:vector  ETV
vector 9894  Network.dyn_peer[0]  lookupHopsSig:vector  ETV
vector 9895  Network.dyn_peer[0]  lookupStabilitySig:vector  ETV
vector 9896  Network.dyn_peer[0]  lookupTimeSig:vector  ETV
vector 9900  Network.dyn_peer[2]  lookupHopsSig:vector  ETV
vector 9901  Network.dyn_peer[2]  lookupStabilitySig:vector  ETV
vector 9902  Network.dyn_peer[2]  lookupTimeSig:vector  ETV
vector 9906  Network.dyn_peer[4]  lookupHopsSig:vector  ETV
vector 9907  Network.dyn_peer[4]  lookupStabilitySig:vector  ETV
vector 9908  Network.dyn_peer[4]  lookupTimeSig:vector  ETV
vector 9915  Network.dyn_peer[7]  lookupHopsSig:vector  ETV
vector 9916  Network.dyn_peer[7]  lookupStabilitySig:vector  ETV
vector 9917  Network.dyn_peer[7]  lookupTimeSig:vector  ETV
vector 9927  Network.dyn_peer[11]  lookupHopsSig:vector  ETV
vector 9928  Network.dyn_peer[11]  lookupStabilitySig:vector  ETV
vector 9929  Network.dyn_peer[11]  lookupTimeSig:vector  ETV
vector 9948  Network.dyn_peer[18]  lookupHopsSig:vector  ETV
vector 9949  Network.dyn_peer[18]  lookupStabilitySig:vector  ETV
vector 9950  Network.dyn_peer[18]  lookupTimeSig:vector  ETV
vector 9954  Network.dyn_peer[20]  lookupHopsSig:vector  ETV
vector 9955  Network.dyn_peer[20]  lookupStabilitySig:vector  ETV
vector 9956  Network.dyn_peer[20]  lookupTimeSig:vector  ETV
vector 9957  Network.dyn_peer[21]  lookupHopsSig:vector  ETV
vector 9958  Network.dyn_peer[21]  lookupStabilitySig:vector  ETV
vector 9959  Network.dyn_peer[21]  lookupTimeSig:vector  ETV
vector 9963  Network.dyn_peer[23]  lookupHopsSig:vector  ETV
vector 9964  Network.dyn_peer[23]  lookupStabilitySig:vector  ETV
vector 9965  Network.dyn_peer[23]  lookupTimeSig:vector  ETV
vector 9972  Network.dyn_peer[26]  lookupHopsSig:vector  ETV
vector 9973  Network.dyn_peer[26]  lookupStabilitySig:vector  ETV
vector 9974  Network.dyn_peer[26]  lookupTimeSig:vector  ETV
vector 9909  Network.dyn_peer[5]  lookupHopsSig:vector  ETV
vector 9910  Network.dyn_peer[5]  lookupStabilitySig:vector  ETV
vector 9911  Network.dyn_peer[5]  lookupTimeSig:vector  ETV
vector 9918  Network.dyn_peer[8]  lookupHopsSig:vector  ETV
vector 9919  Network.dyn_peer[8]  lookupStabilitySig:vector  ETV
vector 9920  Network.dyn_peer[8]  lookupTimeSig:vector  ETV
vector 9945  Network.dyn_peer[17]  lookupHopsSig:vector  ETV
vector 9946  Network.dyn_peer[17]  lookupStabilitySig:vector  ETV
vector 9947  Network.dyn_peer[17]  lookupTimeSig:vector  ETV
vector 9951  Network.dyn_peer[19]  lookupHopsSig:vector  ETV
vector 9952  Network.dyn_peer[19]  lookupStabilitySig:vector  ETV
vector 9953  Network.dyn_peer[19]  lookupTimeSig:vector  ETV
vector 9975  Network.dyn_peer[27]  lookupHopsSig:vector  ETV
vector 9976  Network.dyn_peer[27]  lookupStabilitySig:vector  ETV
vector 9977  Network.dyn_peer[27]  lookupTimeSig:vector  ETV
vector 9978  Network.dyn_peer[28]  lookupHopsSig:vector  ETV
vector 9979  Network.dyn_peer[28]  lookupStabilitySig:vector  ETV
vector 9980  Network.dyn_peer[28]  lookupTimeSig:vector  ETV
vector 9981  Network.dyn_peer[29]  lookupHopsSig:vector  ETV
vector 9982  Network.dyn_peer[29]  lookupStabilitySig:vector  ETV
vector 9983  Network.dyn_peer[29]  lookupTimeSig:vector  ETV
vector 9987  Network.dyn_peer[31]  lookupHopsSig:vector  ETV
vector 9988  Network.dyn_peer[31]  lookupStabilitySig:vector  ETV
vector 9989  Network.dyn_peer[31]  lookupTimeSig:vector  ETV
vector 9912  Network.dyn_peer[6]  lookupHopsSig:vector  ETV
vector 9913  Network.dyn_peer[6]  lookupStabilitySig:vector  ETV
vector 9914  Network.dyn_peer[6]  lookupTimeSig:vector  ETV
vector 9924  Network.dyn_peer[10]  lookupHopsSig:vector  ETV
vector 9925  Network.dyn_peer[10]  lookupStabilitySig:vector  ETV
vector 9926  Network.dyn_peer[10]  lookupTimeSig:vector  ETV
vector 9930  Network.dyn_peer[12]  lookupHopsSig:vector  ETV
vector 9931  Network.dyn_peer[12]  lookupStabilitySig:vector  ETV
vector 9932  Network.dyn_peer[12]  lookupTimeSig:vector  ETV
vector 9933  Network.dyn_peer[13]  lookupHopsSig:vector  ETV
vector 9934  Network.dyn_peer[13]  lookupStabilitySig:vector  ETV
vector 9935  Network.dyn_peer[13]  lookupTimeSig:vector  ETV
vector 9936  Network.dyn_peer[14]  lookupHopsSig:vector  ETV
vector 9937  Network.dyn_peer[14]  lookupStabilitySig:vector  ETV
vector 9938  Network.dyn_peer[14]  lookupTimeSig:vector  ETV
vector 9939  Network.dyn_peer[15]  lookupHopsSig:vector  ETV
vector 9940  Network.dyn_peer[15]  lookupStabilitySig:vector  ETV
vector 9941  Network.dyn_peer[15]  lookupTimeSig:vector  ETV
vector 9966  Network.dyn_peer[24]  lookupHopsSig:vector  ETV
vector 9967  Network.dyn_peer[24]  lookupStabilitySig:vector  ETV
vector 9968  Network.dyn_peer[24]  lookupTimeSig:vector  ETV
vector 9969  Network.dyn_peer[25]  lookupHopsSig:vector  ETV
vector 9970  Network.dyn_peer[25]  lookupStabilitySig:vector  ETV
vector 9971  Network.dyn_peer[25]  lookupTimeSig:vector  ETV
vector 9942  Network.dyn_peer[16]  lookupHopsSig:vector  ETV
vector 9943  Network.dyn_peer[16]  lookupStabilitySig:vector  ETV
vector 9944  Network.dyn_peer[16]  lookupTimeSig:vector  ETV
vector 9984  Network.dyn_peer[30]  lookupHopsSig:vector  ETV
vector 9985  Network.dyn_peer[30]  lookupStabilitySig:vector  ETV
vector 9986  Network.dyn_peer[30]  lookupTimeSig:vector  ETV
vector 9903  Network.dyn_peer[3]  lookupHopsSig:vector  ETV
vector 9904  Network.dyn_peer[3]  lookupStabilitySig:vector  ETV
vector 9905  Network.dyn_peer[3]  lookupTimeSig:vector  ETV
9894	135	20.1000001	1
9894	567	20.714620913398	5
9894	1723	21.911366202921	6
9894	2907	22.811366202921	9
9894	3709	23.511717785539	7
9894	3837	23.615758913878	9
9894	4035	23.818256231055	2
9894	4899	24.518256231055	6
9894	5143	24.725054893481	1
9894	5175	24.731001096561	1
9894	5774	25.234058913706	5
9894	6008	25.442215315314	8
9894	6012	25.443820983249	1
9894	6588	25.843921083249	4
9894	7055	26.243921083249	3
9894	7962	26.958381583165	7
9894	8511	27.460784294952	4
9894	8857	27.761651692613	5
9894	9111	27.964229237621	4
9894	9121	27.966383909731	1
9894	9340	28.153318149286	1
9894	10124	28.757408623698	6
9894	10996	29.557408623698	7
9894	11403	29.961017262977	3
9894	11493	30.059240037687	3
9894	11703	30.269110439384	2
9894	12189	30.773012092188	5
9894	12392	30.973012092188	1
9894	12867	31.482408395064	4
9894	13848	32.389991023937	9
9894	14073	32.538430985559	1
9894	14923	33.339917169222	8
9894	14944	33.398275233277	10
9894	15245	33.607805714792	2
9894	15609	33.907805714792	2
9894	15880	34.116430234693	1
9894	15989	34.159951086815	1
9894	16465	34.520228328847	3
9894	16776	34.768655216544	7
9894	17421	35.277668999054	5
9894	17821	35.677668999054	3
9894	18393	36.181087697278	5
9894	18907	36.637167185533	10
9894	19300	37.038882926336	3
9894	19651	37.287723892519	10
9894	20047	37.641690001763	6
9894	20485	37.946939155382	3
9894	20824	38.246939155382	2
9894	22495	39.550610479194	7
9894	22860	39.850610479194	2
9894	23614	40.450710579194	6
9894	24115	40.856861499289	3
9894	25488	41.958172834552	11
9894	25747	42.172502419816	1
9894	25782	42.183495674976	1
9894	25974	42.380719688807	1
9894	26043	42.428411278079	10
9894	26191	42.585178731498	1
9894	26354	42.692823181419	4
9894	26567	42.889140499026	2
9894	26699	43.001683698009	2
9894	27283	43.40191552629	4
9894	27780	43.90191552629	4
9894	28742	44.805638619583	10
9894	29458	45.405638619583	6
9894	29724	45.610993668173	2
9894	30388	46.210993668173	6
9894	30689	46.418494525008	1
9894	30932	46.572011693426	3
9894	30941	46.58485259153	1
9894	31061	46.687849680317	1
9894	31322	46.987849680317	2
9894	31964	47.59507542271	5
9894	32106	47.741306808819	5
9894	32320	47.94631867067	2
9894	32902	48.54631867067	5
9894	33120	48.75309497124	1
9894	33454	49.053716382529	3
9894	34450	49.853716382529	7
9894	34969	50.352105443296	8
9894	34983	50.356015031985	4
9894	35158	50.550424270368	4
9894	35192	50.559079571983	1
9894	35197	50.562852268998	1
9894	36064	51.463329005227	9
9894	36372	51.763329005227	3
9894	37108	52.373133349799	5
9894	37492	52.748349747832	5
9894	37636	52.87711889897	5
9894	38163	53.383780519775	5
9894	39047	54.283780519775	8
9894	39250	54.490556815695	1
9894	39999	55.19337299276	6
9894	40017	55.196120266946	6
9894	40135	55.302838162218	7
9894	41045	56.106924861407	8
9894	41695	56.606924861407	5
9894	42559	57.307086784614	6
9894	42764	57.42703369212	4
9894	43059	57.632457462507	1
9894	43063	57.633564871476	1
9894	43352	57.810983949629	4
9894	43531	57.914530877613	1
9894	44212	58.514530877613	5
9894	45873	59.926559537099	14
9894	46346	60.33157801337	3
9894	46407	60.412381673429	3
9894	46937	60.822384083721	4
9894	47862	61.622384083721	8
9894	48491	62.128233806095	4
9894	48852	62.428313709427	2
9894	49268	62.730567735812	2
9894	49502	62.934110494642	2
9894	49757	63.134110494642	1
9894	50171	63.54548831557	3
9894	50189	63.548541186411	3
9894	50362	63.665150624763	1
9894	50590	63.868620997534	1
9894	50845	64.075504355697	1
9894	51566	64.677744984054	6
9894	52796	65.777744984054	12
9894	53350	66.278140186695	4
9894	53644	66.502593281894	2
9894	53743	66.584484985281	2
9894	54342	66.999102464094	6
9894	54653	67.210876378837	6
9894	56028	68.312992077227	12
9894	56795	69.012992077227	6
9894	56816	69.017613226062	0
9894	57146	69.317613226062	3
9894	58309	70.138542758217	4
9894	58823	70.538542758217	3
9894	59490	71.151075111042	5
9894	59911	71.531155498368	7
9894	60253	71.833342872283	2
9894	60317	71.868003367409	6
9894	60574	72.076930180519	2
9894	60981	72.476930180519	3
9894	61202	72.683950612895	1
9894	62342	73.589443089314	10
9894	62919	74.001883417857	2
9894	63974	74.901883417857	8
9894	64680	75.502142275492	5
9894	65344	76.002242375492	5
9894	65956	76.402242375492	3
9894	66351	76.710668752049	2
9894	67528	77.715233166217	9
9894	68238	78.376258856647	13
9894	68298	78.419712079706	8
9894	68417	78.522592653131	1
9894	68833	78.822592653131	2
9894	69343	79.233882148756	3
9894	69477	79.32827832669	5
9894	70440	80.12837842669	9
9894	71432	81.02837842669	8
9894	72055	81.628913671224	5
9894	72368	81.932244363492	2
9894	72944	82.436632873774	5
9894	73190	82.642965173799	3
9894	73924	83.249622690803	1
9894	74152	83.449622690803	1
9894	74293	83.562355423515	0
9894	76525	85.465204022919	21
9894	77217	86.248251410607	3
9894	78314	87.055120662846	9
9894	78987	87.655120662846	5
9894	79334	87.962446105272	3
9894	79460	88.05291505884	3
9894	79776	88.32035448734	3
9894	79953	88.459196995026	3
9894	79978	88.471586248948	4
9894	81712	89.7762935411	16
9894	82105	90.1762935411	3
9894	82321	90.382627904254	1
9894	82545	90.597768433352	1
9894	83037	91.004268043098	4
9894	83362	91.304268043098	2
9894	83552	91.509560193408	1
9894	83751	91.711399269905	1
9894	84084	92.01542313385	2
9894	84184	92.093861660146	1
9894	84341	92.227800522477	2
9894	84360	92.233829767875	0
9894	84830	92.587431604781	1
9894	85587	93.197157862511	4
9894	85878	93.405221795466	3
9894	86216	93.705979145531	5
9894	86233	93.707606434878	2
9894	86295	93.759738187658	2
9894	87239	94.466662205103	8
9894	88129	95.266662205103	7
9894	88204	95.316755355981	2
9894	88374	95.475897331874	1
9894	89187	96.178971904755	7
9894	90165	97.078971904755	8
9894	90531	97.385901399274	2
9894	90582	97.415855384333	2
9894	90955	97.786063447758	4
9894	91279	98.018015979638	5
9894	91292	98.022618886571	5
9894	91619	98.318872535366	2
9894	91634	98.326198485396	2
9894	92330	98.830577290065	5
9894	92335	98.836279602536	5
9894	92556	99.01133150996	7
9894	92713	99.116055484333	7
9894	92917	99.286105991886	16
9894	92919	99.286774960882	16
9894	92954	99.307966106275	3
9894	92967	99.312057961191	2
9894	93263	99.515447597165	1
9894	93280	99.518065578209	1
9894	93421	99.624933723793	1
9894	93428	99.62779208738	5
9894	93558	99.732953839651	1
9894	93837	99.932953839651	1
9894	94530	100.442273290578	4
9894	96119	101.843202647674	15
9894	96314	102.043202647674	1
9894	96786	102.448834710887	3
9894	97356	102.966054702696	4
9894	97751	103.274463338313	2
9894	98539	103.878348362218	7
9894	98970	104.278348362218	3
9894	99402	104.686828778763	3
9894	100208	105.374304784601	6
9894	100360	105.497568845932	9
9894	101537	106.401345988126	10
9894	102917	107.501345988126	10
9894	103373	107.893955799347	6
9894	103401	107.902502335855	4
9894	103563	108.092813060411	3
9894	103784	108.296551518776	2
9894	104011	108.496551518776	1
9894	104258	108.699902718293	1
9894	104519	108.900002818293	2
9894	105349	109.509618610813	0
9894	105451	109.600002818293	7
9894	105700	109.809068342378	1
9894	106186	110.214291798022	4
9894	106760	110.714291798022	4
9894	107282	111.203557529184	5
9894	107782	111.606998366244	4
9894	108123	111.906998366244	2
9894	109947	113.437177716761	11
9894	110180	113.609241341513	17
9894	110630	114.013895115304	4
9894	111015	114.313895115304	2
9894	111639	114.821142313174	5
9894	111919	115.029219046706	1
9894	112158	115.187999810614	3
9894	112354	115.345735916758	6
9894	112374	115.348117061193	0
9894	113287	116.000822926759	0
9894	113833	116.400822926759	3
9894	114463	116.883642794031	3
9894	114634	117.008713185332	5
9894	114862	117.188711223578	2
9894	115641	117.789553459191	6
9894	116097	118.189553459191	3
9894	116706	118.69929039092	5
9894	117246	119.124458538671	3
9894	117552	119.424748971373	2
9894	117596	119.508733670309	2
9894	117862	119.710968340635	1
9894	117866	119.712518111828	1
9894	118108	119.915327053148	1
9894	119377	121.116282020879	13
9894	119719	121.416373460099	2
9894	120128	121.716689287449	2
9894	120968	122.326386624702	5
9894	121007	122.342266942894	4
9894	121334	122.630218816368	3
9894	122105	123.337701092986	7
9894	123355	124.349180162494	5
9894	123431	124.384441864932	8
9894	123733	124.637701092986	13
9894	123736	124.641620218601	9
9894	124146	124.955274014547	1
9894	124224	124.99125412973	6
9894	124247	125.04887468657	6
9894	124256	125.052965085379	6
9894	124454	125.207885392751	1
9894	125275	126.011025200038	9
9894	126490	127.080098086005	8
9894	126852	127.480098086005	3
9894	127600	128.098625326042	5
9894	127635	128.166212740319	5
9894	127896	128.368699581316	2
9894	128532	128.968699581316	5
9894	128971	129.305516105559	2
9894	128981	129.308813959647	2
9894	129273	129.509200400223	2
9894	129856	130.012942131667	4
9894	130128	130.221175496652	1
9894	130527	130.622560422517	3
9894	130669	130.761806287258	3
9894	131347	131.26883060776	5
9894	132231	131.96883060776	6
9894	133228	132.735442538892	2
9894	133775	133.172802180497	12
9894	133839	133.24430716069	4
9894	134396	133.664696315269	1
9894	134527	133.777800363456	5
9894	134567	133.799016382092	0
9894	135483	134.502033052623	7
9894	136141	135.102033052623	6
9894	136442	135.304392350899	2
9894	136577	135.407370210875	0
9894	136629	135.472063959356	3
9894	136661	135.47659067336	0
9894	136867	135.67659067336	1
9894	137475	136.181334110975	4
9894	137624	136.281434210975	1
9894	138231	136.681434210975	4
9894	138512	136.889953388514	2
9894	138798	137.099011244029	1
9894	139151	137.401265956242	2
9894	139168	137.410667346229	3
9894	140030	138.212942900288	8
9894	140263	138.412942900288	1
9894	140567	138.71957196444	2
9894	140777	138.936674182369	1
9894	140861	139.104372541949	1
9895	135	20.1000001	0.875
9895	567	20.714620913398	0.375
9895	1723	21.911366202921	0.25
9895	2907	22.811366202921	-0.125
9895	3709	23.511717785539	0.125
9895	3837	23.615758913878	-0.125
9895	4035	23.818256231055	0.75
9895	4899	24.518256231055	0.25
9895	5143	24.725054893481	0.875
9895	5175	24.731001096561	0.875
9895	5774	25.234058913706	0.375
9895	6008	25.442215315314	0
9895	6012	25.443820983249	0.875
9895	6588	25.843921083249	0.5
9895	7055	26.243921083249	0.625
9895	7962	26.958381583165	0.125
9895	8511	27.460784294952	0.5
9895	8857	27.761651692613	0.375
9895	9111	27.964229237621	0.5
9895	9121	27.966383909731	0.875
9895	9340	28.153318149286	0.875
9895	10124	28.757408623698	0.25
9895	10996	29.557408623698	0.125
9895	11403	29.961017262977	0.625
9895	11493	30.059240037687	0.625
9895	11703	30.269110439384	0.75
9895	12189	30.773012092188	0.375
9895	12392	30.973012092188	0.875
9895	12867	31.482408395064	0.5
9895	13848	32.389991023937	-0.125
9895	14073	32.538430985559	0.875
9895	14923	33.339917169222	0
9895	14944	33.398275233277	-0.25
9895	15245	33.607805714792	0.75
9895	15609	33.907805714792	0.75
9895	15880	34.116430234693	0.875
9895	15989	34.159951086815	0.875
9895	16465	34.520228328847	0.625
9895	16776	34.768655216544	0.125
9895	17421	35.277668999054	0.375
9895	17821	35.677668999054	0.625
9895	18393	36.181087697278	0.375
9895	18907	36.637167185533	-0.25
9895	19300	37.038882926336	0.625
9895	19651	37.287723892519	-0.25
9895	20047	37.641690001763	0.25
9895	20485	37.946939155382	0.625
9895	20824	38.246939155382	0.75
9895	22495	39.550610479194	0.125
9895	22860	39.850610479194	0.75
9895	23614	40.450710579194	0.25
9895	24115	40.856861499289	0.625
9895	25488	41.958172834552	-0.375
9895	25747	42.172502419816	0.875
9895	25782	42.183495674976	0.875
9895	25974	42.380719688807	0.875
9895	26043	42.428411278079	-0.25
9895	26191	42.585178731498	0.875
9895	26354	42.692823181419	0.5
9895	26567	42.889140499026	0.75
9895	26699	43.001683698009	0.75
9895	27283	43.40191552629	0.5
9895	27780	43.90191552629	0.5
9895	28742	44.805638619583	-0.25
9895	29458	45.405638619583	0.25
9895	29724	45.610993668173	0.75
9895	30388	46.210993668173	0.25
9895	30689	46.418494525008	0.875
9895	30932	46.572011693426	0.625
9895	30941	46.58485259153	0.875
9895	31061	46.687849680317	0.875
9895	31322	46.987849680317	0.75
9895	31964	47.59507542271	0.375
9895	32106	47.741306808819	0.375
9895	32320	47.94631867067	0.75
9895	32902	48.54631867067	0.375
9895	33120	48.75309497124	0.875
9895	33454	49.053716382529	0.625
9895	34450	49.853716382529	0.125
9895	34969	50.352105443296	0
9895	34983	50.356015031985	0.5
9895	35158	50.550424270368	0.5
9895	35192	50.559079571983	0.875
9895	35197	50.562852268998	0.875
9895	36064	51.463329005227	-0.125
9895	36372	51.763329005227	0.625
9895	37108	52.373133349799	0.375
9895	37492	52.748349747832	0.375
9895	37636	52.87711889897	0.375
9895	38163	53.383780519775	0.375
9895	39047	54.283780519775	0.11111110448837
9895	39250	54.490556815695	0.875
9895	39999	55.19337299276	0.25
9895	40017	55.196120266946	0.25
9895	40135	55.302838162218	0.125
9895	41045	56.106924861407	0
9895	41695	56.606924861407	0.375
9895	42559	57.307086784614	0.25
9895	42764	57.42703369212	0.5
9895	43059	57.632457462507	0.875
9895	43063	57.633564871476	0.875
9895	43352	57.810983949629	0.5
9895	43531	57.914530877613	0.875
9895	44212	58.514530877613	0.375
9895	45873	59.926559537099	-0.75
9895	46346	60.33157801337	0.625
9895	46407	60.412381673429	0.625
9895	46937	60.822384083721	0.5
9895	47862	61.622384083721	0
9895	48491	62.128233806095	0.5
9895	48852	62.428313709427	0.75
9895	49268	62.730567735812	0.75
9895	49502	62.934110494642	0.75
9895	49757	63.134110494642	0.875
9895	50171	63.54548831557	0.625
9895	50189	63.548541186411	0.625
9895	50362	63.665150624763	0.875
9895	50590	63.868620997534	0.875
9895	50845	64.075504355697	0.875
9895	51566	64.677744984054	0.25
9895	52796	65.777744984054	-0.5
9895	53350	66.278140186695	0.5
9895	53644	66.502593281894	0.75
9895	53743	66.584484985281	0.75
9895	54342	66.999102464094	0.25
9895	54653	67.210876378837	0.25
9895	56028	68.312992077227	-0.5
9895	56795	69.012992077227	0.25
9895	56816	69.017613226062	1
9895	57146	69.317613226062	0.625
9895	58309	70.138542758217	0.5
9895	58823	70.538542758217	0.625
9895	59490	71.151075111042	0.375
9895	59911	71.531155498368	0.125
9895	60253	71.833342872283	0.75
9895	60317	71.868003367409	0.25
9895	60574	72.076930180519	0.75
9895	60981	72.476930180519	0.625
9895	61202	72.683950612895	0.875
9895	62342	73.589443089314	-0.25
9895	62919	74.001883417857	0.75
9895	63974	74.901883417857	0
9895	64680	75.502142275492	0.375
9895	65344	76.002242375492	0.375
9895	65956	76.402242375492	0.625
9895	66351	76.710668752049	0.75
9895	67528	77.715233166217	-0.125
9895	68238	78.376258856647	-0.625
9895	68298	78.419712079706	0
9895	68417	78.522592653131	0.875
9895	68833	78.822592653131	0.75
9895	69343	79.233882148756	0.625
9895	69477	79.32827832669	0.375
9895	70440	80.12837842669	-0.125
9895	71432	81.02837842669	0
9895	72055	81.628913671224	0.375
9895	72368	81.932244363492	0.75
9895	72944	82.436632873774	0.375
9895	73190	82.642965173799	0.66666665673256
9895	73924	83.249622690803	0.875
9895	74152	83.449622690803	0.875
9895	74293	83.562355423515	1
9895	76525	85.465204022919	-1.625
9895	77217	86.248251410607	0.625
9895	78314	87.055120662846	-0.125
9895	78987	87.655120662846	0.375
9895	79334	87.962446105272	0.625
9895	79460	88.05291505884	0.625
9895	79776	88.32035448734	0.625
9895	79953	88.459196995026	0.625
9895	79978	88.471586248948	0.5
9895	81712	89.7762935411	-1
9895	82105	90.1762935411	0.625
9895	82321	90.382627904254	0.875
9895	82545	90.597768433352	0.875
9895	83037	91.004268043098	0.5
9895	83362	91.304268043098	0.75
9895	83552	91.509560193408	0.875
9895	83751	91.711399269905	0.875
9895	84084	92.01542313385	0.75
9895	84184	92.093861660146	0.875
9895	84341	92.227800522477	0.75
9895	84360	92.233829767875	1
9895	84830	92.587431604781	0.875
9895	85587	93.197157862511	0.5
9895	85878	93.405221795466	0.625
9895	86216	93.705979145531	0.375
9895	86233	93.707606434878	0.75
9895	86295	93.759738187658	0.75
9895	87239	94.466662205103	0
9895	88129	95.266662205103	0.125
9895	88204	95.316755355981	0.75
9895	88374	95.475897331874	0.875
9895	89187	96.178971904755	0.125
9895	90165	97.078971904755	0
9895	90531	97.385901399274	0.75
9895	90582	97.415855384333	0.75
9895	90955	97.786063447758	0.55555555224419
9895	91279	98.018015979638	0.375
9895	91292	98.022618886571	0.375
9895	91619	98.318872535366	0.75
9895	91634	98.326198485396	0.75
9895	92330	98.830577290065	0.375
9895	92335	98.836279602536	0.375
9895	92556	99.01133150996	0.125
9895	92713	99.116055484333	0.22222220897675
9895	92917	99.286105991886	-1
9895	92919	99.286774960882	-1
9895	92954	99.307966106275	0.625
9895	92967	99.312057961191	0.75
9895	93263	99.515447597165	0.875
9895	93280	99.518065578209	0.875
9895	93421	99.624933723793	0.875
9895	93428	99.62779208738	0.375
9895	93558	99.732953839651	0.875
9895	93837	99.932953839651	0.875
9895	94530	100.442273290578	0.5
9895	96119	101.843202647674	-0.875
9895	96314	102.043202647674	0.875
9895	96786	102.448834710887	0.625
9895	97356	102.966054702696	0.5
9895	97751	103.274463338313	0.75
9895	98539	103.878348362218	0.125
9895	98970	104.278348362218	0.625
9895	99402	104.686828778763	0.625
9895	100208	105.374304784601	0.25
9895	100360	105.497568845932	-0.125
9895	101537	106.401345988126	-0.25
9895	102917	107.501345988126	-0.25
9895	103373	107.893955799347	0.25
9895	103401	107.902502335855	0.5
9895	103563	108.092813060411	0.625
9895	103784	108.296551518776	0.75
9895	104011	108.496551518776	0.875
9895	104258	108.699902718293	0.875
9895	104519	108.900002818293	0.75
9895	105349	109.509618610813	1
9895	105451	109.600002818293	0.125
9895	105700	109.809068342378	0.875
9895	106186	110.214291798022	0.5
9895	106760	110.714291798022	0.5
9895	107282	111.203557529184	0.375
9895	107782	111.606998366244	0.5
9895	108123	111.906998366244	0.75
9895	109947	113.437177716761	-0.375
9895	110180	113.609241341513	-1.125
9895	110630	114.013895115304	0.5
9895	111015	114.313895115304	0.75
9895	111639	114.821142313174	0.375
9895	111919	115.029219046706	0.875
9895	112158	115.187999810614	0.625
9895	112354	115.345735916758	0.25
9895	112374	115.348117061193	1
9895	113287	116.000822926759	1
9895	113833	116.400822926759	0.625
9895	114463	116.883642794031	0.625
9895	114634	117.008713185332	0.375
9895	114862	117.188711223578	0.75
9895	115641	117.789553459191	0.25
9895	116097	118.189553459191	0.625
9895	116706	118.69929039092	0.375
9895	117246	119.124458538671	0.625
9895	117552	119.424748971373	0.75
9895	117596	119.508733670309	0.75
9895	117862	119.710968340635	0.875
9895	117866	119.712518111828	0.875
9895	118108	119.915327053148	0.875
9895	119377	121.116282020879	-0.625
9895	119719	121.416373460099	0.75
9895	120128	121.716689287449	0.75
9895	120968	122.326386624702	0.375
9895	121007	122.342266942894	0.5
9895	121334	122.630218816368	0.625
9895	122105	123.337701092986	0.125
9895	123355	124.349180162494	0.375
9895	123431	124.384441864932	0
9895	123733	124.637701092986	-0.625
9895	123736	124.641620218601	-0.125
9895	124146	124.955274014547	0.875
9895	124224	124.99125412973	0.25
9895	124247	125.04887468657	0.25
9895	124256	125.052965085379	0.25
9895	124454	125.207885392751	0.875
9895	125275	126.011025200038	-0.125
9895	126490	127.080098086005	0
9895	126852	127.480098086005	0.625
9895	127600	128.098625326042	0.375
9895	127635	128.166212740319	0.375
9895	127896	128.368699581316	0.75
9895	128532	128.968699581316	0.375
9895	128971	129.305516105559	0.75
9895	128981	129.308813959647	0.75
9895	129273	129.509200400223	0.75
9895	129856	130.012942131667	0.5
9895	130128	130.221175496652	0.875
9895	130527	130.622560422517	0.625
9895	130669	130.761806287258	0.625
9895	131347	131.26883060776	0.375
9895	132231	131.96883060776	0.25
9895	133228	132.735442538892	0.75
9895	133775	133.172802180497	-0.5
9895	133839	133.24430716069	0.5
9895	134396	133.664696315269	0.875
9895	134527	133.777800363456	0.375
9895	134567	133.799016382092	1
9895	135483	134.502033052623	0.125
9895	136141	135.102033052623	0.25
9895	136442	135.304392350899	0.75
9895	136577	135.407370210875	1
9895	136629	135.472063959356	0.625
9895	136661	135.47659067336	1
9895	136867	135.67659067336	0.875
9895	137475	136.181334110975	0.5
9895	137624	136.281434210975	0.875
9895	138231	136.681434210975	0.5
9895	138512	136.889953388514	0.75
9895	138798	137.099011244029	0.875
9895	139151	137.401265956242	0.75
9895	139168	137.410667346229	0.625
9895	140030	138.212942900288	0
9895	140263	138.412942900288	0.875
9895	140567	138.71957196444	0.75
9895	140777	138.936674182369	0.875
9895	140861	139.104372541949	0.875
9896	135	20.1000001	0.1
9896	567	20.714620913398	0.6
9896	1723	21.911366202921	0.5
9896	2907	22.811366202921	0.9
9896	3709	23.511717785539	0.7
9896	3837	23.615758913878	0.8
9896	4035	23.818256231055	0.2
9896	4899	24.518256231055	0.7
9896	5143	24.725054893481	0.2
9896	5175	24.731001096561	0.2
9896	5774	25.234058913706	0.5
9896	6008	25.442215315314	0.7
9896	6012	25.443820983249	0.2
9896	6588	25.843921083249	0.4
9896	7055	26.243921083249	0.4
9896	7962	26.958381583165	0.7
9896	8511	27.460784294952	0.5
9896	8857	27.761651692613	0.6
9896	9111	27.964229237621	0.5
9896	9121	27.966383909731	0.2
9896	9340	28.153318149286	0.2
9896	10124	28.757408623698	0.6
9896	10996	29.557408623698	0.8
9896	11403	29.961017262977	0.4
9896	11493	30.059240037687	0.4
9896	11703	30.269110439384	0.3
9896	12189	30.773012092188	0.5
9896	12392	30.973012092188	0.2
9896	12867	31.482408395064	0.5
9896	13848	32.389991023937	0.9
9896	14073	32.538430985559	0.2
9896	14923	33.339917169222	0.8
9896	14944	33.398275233277	1
9896	15245	33.607805714792	0.2
9896	15609	33.907805714792	0.3
9896	15880	34.116430234693	0.2
9896	15989	34.159951086815	0.2
9896	16465	34.520228328847	0.4
9896	16776	34.768655216544	0.6
9896	17421	35.277668999054	0.5
9896	17821	35.677668999054	0.4
9896	18393	36.181087697278	0.5
9896	18907	36.637167185533	0.9
9896	19300	37.038882926336	0.4
9896	19651	37.287723892519	1.1
9896	20047	37.641690001763	0.6
9896	20485	37.946939155382	0.3
9896	20824	38.246939155382	0.3
9896	22495	39.550610479194	0.6
9896	22860	39.850610479194	0.3
9896	23614	40.450710579194	0.6
9896	24115	40.856861499289	0.4
9896	25488	41.958172834552	1.1
9896	25747	42.172502419816	0.2
9896	25782	42.183495674976	0.2
9896	25974	42.380719688807	0.2
9896	26043	42.428411278079	1.1
9896	26191	42.585178731498	0.2
9896	26354	42.692823181419	0.5
9896	26567	42.889140499026	0.3
9896	26699	43.001683698009	0.3
9896	27283	43.40191552629	0.4
9896	27780	43.90191552629	0.5
9896	28742	44.805638619583	0.9
9896	29458	45.405638619583	0.6
9896	29724	45.610993668173	0.2
9896	30388	46.210993668173	0.6
9896	30689	46.418494525008	0.2
9896	30932	46.572011693426	0.4
9896	30941	46.58485259153	0.2
9896	31061	46.687849680317	0.1
9896	31322	46.987849680317	0.3
9896	31964	47.59507542271	0.6
9896	32106	47.741306808819	0.6
9896	32320	47.94631867067	0.2
9896	32902	48.54631867067	0.6
9896	33120	48.75309497124	0.2
9896	33454	49.053716382529	0.3
9896	34450	49.853716382529	0.8
9896	34969	50.352105443296	0.9
9896	34983	50.356015031985	0.5
9896	35158	50.550424270368	0.5
9896	35192	50.559079571983	0.2
9896	35197	50.562852268998	0.2
9896	36064	51.463329005227	0.9
9896	36372	51.763329005227	0.3
9896	37108	52.373133349799	0.6
9896	37492	52.748349747832	0.6
9896	37636	52.87711889897	0.5
9896	38163	53.383780519775	0.5
9896	39047	54.283780519775	0.9
9896	39250	54.490556815695	0.2
9896	39999	55.19337299276	0.7
9896	40017	55.196120266946	0.7
9896	40135	55.302838162218	0.7
9896	41045	56.106924861407	0.8
9896	41695	56.606924861407	0.5
9896	42559	57.307086784614	0.7
9896	42764	57.42703369212	0.4
9896	43059	57.632457462507	0.2
9896	43063	57.633564871476	0.2
9896	43352	57.810983949629	0.5
9896	43531	57.914530877613	0.1
9896	44212	58.514530877613	0.6
9896	45873	59.926559537099	1.4
9896	46346	60.33157801337	0.4
9896	46407	60.412381673429	0.4
9896	46937	60.822384083721	0.4