version 2
run Stability-109-20130526-18:54:26-1898
attr configname Stability
attr datetime 20130526-18:54:26
attr experiment Stability
attr inifile omnetpp.ini
attr iterationvars $0=1e-4
attr iterationvars2 "$0=1e-4, $repetition=9"
attr measurement $0=1e-4
attr network Network
attr processid 1898
attr repetition 9
attr replication #9
attr resultdir results
attr runnumber 109
attr seedset 109

vector 10669  Network.churner  inGoingSizeSig:vector  ETV
vector 10588  Network.dyn_peer[5]  lookupHopsSig:vector  ETV
vector 10589  Network.dyn_peer[5]  lookupStabilitySig:vector  ETV
vector 10590  Network.dyn_peer[5]  lookupTimeSig:vector  ETV
vector 10639  Network.dyn_peer[22]  lookupHopsSig:vector  ETV
vector 10640  Network.dyn_peer[22]  lookupStabilitySig:vector  ETV
vector 10641  Network.dyn_peer[22]  lookupTimeSig:vector  ETV
vector 10645  Network.dyn_peer[24]  lookupHopsSig:vector  ETV
vector 10646  Network.dyn_peer[24]  lookupStabilitySig:vector  ETV
vector 10647  Network.dyn_peer[24]  lookupTimeSig:vector  ETV
vector 10663  Network.dyn_peer[30]  lookupHopsSig:vector  ETV
vector 10664  Network.dyn_peer[30]  lookupStabilitySig:vector  ETV
vector 10665  Network.dyn_peer[30]  lookupTimeSig:vector  ETV
vector 10573  Network.dyn_peer[0]  lookupHopsSig:vector  ETV
vector 10574  Network.dyn_peer[0]  lookupStabilitySig:vector  ETV
vector 10575  Network.dyn_peer[0]  lookupTimeSig:vector  ETV
vector 10576  Network.dyn_peer[1]  lookupHopsSig:vector  ETV
vector 10577  Network.dyn_peer[1]  lookupStabilitySig:vector  ETV
vector 10578  Network.dyn_peer[1]  lookupTimeSig:vector  ETV
vector 10585  Network.dyn_peer[4]  lookupHopsSig:vector  ETV
vector 10586  Network.dyn_peer[4]  lookupStabilitySig:vector  ETV
vector 10587  Network.dyn_peer[4]  lookupTimeSig:vector  ETV
vector 10591  Network.dyn_peer[6]  lookupHopsSig:vector  ETV
vector 10592  Network.dyn_peer[6]  lookupStabilitySig:vector  ETV
vector 10593  Network.dyn_peer[6]  lookupTimeSig:vector  ETV
vector 10594  Network.dyn_peer[7]  lookupHopsSig:vector  ETV
vector 10595  Network.dyn_peer[7]  lookupStabilitySig:vector  ETV
vector 10596  Network.dyn_peer[7]  lookupTimeSig:vector  ETV
vector 10600  Network.dyn_peer[9]  lookupHopsSig:vector  ETV
vector 10601  Network.dyn_peer[9]  lookupStabilitySig:vector  ETV
vector 10602  Network.dyn_peer[9]  lookupTimeSig:vector  ETV
vector 10606  Network.dyn_peer[11]  lookupHopsSig:vector  ETV
vector 10607  Network.dyn_peer[11]  lookupStabilitySig:vector  ETV
vector 10608  Network.dyn_peer[11]  lookupTimeSig:vector  ETV
vector 10618  Network.dyn_peer[15]  lookupHopsSig:vector  ETV
vector 10619  Network.dyn_peer[15]  lookupStabilitySig:vector  ETV
vector 10620  Network.dyn_peer[15]  lookupTimeSig:vector  ETV
vector 10633  Network.dyn_peer[20]  lookupHopsSig:vector  ETV
vector 10634  Network.dyn_peer[20]  lookupStabilitySig:vector  ETV
vector 10635  Network.dyn_peer[20]  lookupTimeSig:vector  ETV
vector 10657  Network.dyn_peer[28]  lookupHopsSig:vector  ETV
vector 10658  Network.dyn_peer[28]  lookupStabilitySig:vector  ETV
vector 10659  Network.dyn_peer[28]  lookupTimeSig:vector  ETV
vector 10582  Network.dyn_peer[3]  lookupHopsSig:vector  ETV
vector 10583  Network.dyn_peer[3]  lookupStabilitySig:vector  ETV
vector 10584  Network.dyn_peer[3]  lookupTimeSig:vector  ETV
vector 10609  Network.dyn_peer[12]  lookupHopsSig:vector  ETV
vector 10610  Network.dyn_peer[12]  lookupStabilitySig:vector  ETV
vector 10611  Network.dyn_peer[12]  lookupTimeSig:vector  ETV
vector 10612  Network.dyn_peer[13]  lookupHopsSig:vector  ETV
vector 10613  Network.dyn_peer[13]  lookupStabilitySig:vector  ETV
vector 10614  Network.dyn_peer[13]  lookupTimeSig:vector  ETV
vector 10624  Network.dyn_peer[17]  lookupHopsSig:vector  ETV
vector 10625  Network.dyn_peer[17]  lookupStabilitySig:vector  ETV
vector 10626  Network.dyn_peer[17]  lookupTimeSig:vector  ETV
vector 10651  Network.dyn_peer[26]  lookupHopsSig:vector  ETV
vector 10652  Network.dyn_peer[26]  lookupStabilitySig:vector  ETV
vector 10653  Network.dyn_peer[26]  lookupTimeSig:vector  ETV
vector 10660  Network.dyn_peer[29]  lookupHopsSig:vector  ETV
vector 10661  Network.dyn_peer[29]  lookupStabilitySig:vector  ETV
vector 10662  Network.dyn_peer[29]  lookupTimeSig:vector  ETV
vector 10603  Network.dyn_peer[10]  lookupHopsSig:vector  ETV
vector 10604  Network.dyn_peer[10]  lookupStabilitySig:vector  ETV
vector 10605  Network.dyn_peer[10]  lookupTimeSig:vector  ETV
vector 10615  Network.dyn_peer[14]  lookupHopsSig:vector  ETV
vector 10616  Network.dyn_peer[14]  lookupStabilitySig:vector  ETV
vector 10617  Network.dyn_peer[14]  lookupTimeSig:vector  ETV
vector 10621  Network.dyn_peer[16]  lookupHopsSig:vector  ETV
vector 10622  Network.dyn_peer[16]  lookupStabilitySig:vector  ETV
vector 10623  Network.dyn_peer[16]  lookupTimeSig:vector  ETV
vector 10630  Network.dyn_peer[19]  lookupHopsSig:vector  ETV
vector 10631  Network.dyn_peer[19]  lookupStabilitySig:vector  ETV
vector 10632  Network.dyn_peer[19]  lookupTimeSig:vector  ETV
vector 10642  Network.dyn_peer[23]  lookupHopsSig:vector  ETV
vector 10643  Network.dyn_peer[23]  lookupStabilitySig:vector  ETV
vector 10644  Network.dyn_peer[23]  lookupTimeSig:vector  ETV
vector 10648  Network.dyn_peer[25]  lookupHopsSig:vector  ETV
vector 10649  Network.dyn_peer[25]  lookupStabilitySig:vector  ETV
vector 10650  Network.dyn_peer[25]  lookupTimeSig:vector  ETV
vector 10654  Network.dyn_peer[27]  lookupHopsSig:vector  ETV
vector 10655  Network.dyn_peer[27]  lookupStabilitySig:vector  ETV
vector 10656  Network.dyn_peer[27]  lookupTimeSig:vector  ETV
vector 10579  Network.dyn_peer[2]  lookupHopsSig:vector  ETV
vector 10580  Network.dyn_peer[2]  lookupStabilitySig:vector  ETV
vector 10581  Network.dyn_peer[2]  lookupTimeSig:vector  ETV
vector 10597  Network.dyn_peer[8]  lookupHopsSig:vector  ETV
vector 10598  Network.dyn_peer[8]  lookupStabilitySig:vector  ETV
vector 10599  Network.dyn_peer[8]  lookupTimeSig:vector  ETV
vector 10627  Network.dyn_peer[18]  lookupHopsSig:vector  ETV
vector 10628  Network.dyn_peer[18]  lookupStabilitySig:vector  ETV
vector 10629  Network.dyn_peer[18]  lookupTimeSig:vector  ETV
vector 10636  Network.dyn_peer[21]  lookupHopsSig:vector  ETV
vector 10637  Network.dyn_peer[21]  lookupStabilitySig:vector  ETV
vector 10638  Network.dyn_peer[21]  lookupTimeSig:vector  ETV
vector 10666  Network.dyn_peer[31]  lookupHopsSig:vector  ETV
vector 10667  Network.dyn_peer[31]  lookupStabilitySig:vector  ETV
vector 10668  Network.dyn_peer[31]  lookupTimeSig:vector  ETV
10573	141	20.1000001	1
10573	447	20.6000001	4
10573	676	20.909867327564	2
10573	1373	21.61388188682	7
10573	2231	22.31388188682	7
10573	2948	22.82521029099	4
10573	3343	23.128699009953	5
10573	3523	23.313113246508	16
10573	3673	23.418694853119	1
10573	4807	24.318694853119	8
10573	5303	24.727954772519	3
10573	5575	24.928414247731	1
10573	6787	26.031020428995	11
10573	7944	27.031020428995	12
10573	8352	27.340516160524	2
10573	9255	28.040616260524	8
10573	9871	28.640616260524	6
10573	10241	28.945320261182	2
10573	10604	29.254340501776	3
10573	10977	29.554340501776	2
10573	12115	30.462182465418	9
10573	12342	30.659267908389	4
10573	12790	30.972087198344	2
10573	12963	31.086195435465	2
10573	13057	31.164105923263	6
10573	13182	31.273339061056	2
10573	13221	31.29016996446	1
10573	13436	31.488099500065	4
10573	13445	31.490577742937	1
10573	14319	32.192156959359	7
10573	15324	33.092156959359	9
10573	15691	33.499767505773	4
10573	16057	33.899767505773	3
10573	17441	35.317431241219	8
10573	17673	35.50487314437	17
10573	17718	35.551933676215	2
10573	18013	35.820838601734	2
10573	18016	35.821817682002	5
10573	18760	36.422122326027	6
10573	19813	37.422122326027	10
10573	20409	37.926822942513	4
10573	20513	38.031848873199	5
10573	20791	38.236506313256	3
10573	20928	38.338400153869	2
10573	21081	38.443731517238	1
10573	21190	38.543831617238	1
10573	21789	39.143831617238	5
10573	22022	39.350557143089	1
10573	22323	39.563481641613	2
10573	22782	39.970315301824	3
10573	23089	40.174474218485	2
10573	23980	40.766670660587	4
10573	24126	40.874474218485	6
10573	24334	40.984026760385	1
10573	24732	41.288251445822	2
10573	24968	41.488747307461	2
10573	25418	41.899421800293	3
10573	26804	43.066914571418	7
10573	27475	43.575267219479	3
10573	28892	44.875267219479	15
10573	29121	45.08484136725	2
10573	29366	45.28484136725	1
10573	29946	45.717333549531	4
10573	30315	46.017333549531	2
10573	30584	46.217357386354	1
10573	30592	46.220096139546	1
10573	31140	46.713611510513	3
10573	31732	47.122444953669	3
10573	32197	47.444885966901	4
10573	32573	47.748159736214	4
10573	33178	48.248159736214	4
10573	34611	49.275245582051	2
10573	34847	49.475245582051	1
10573	35153	49.779348967293	2
10573	35620	50.184417669555	3
10573	35808	50.357289040686	1
10573	35863	50.391239530164	2
10573	36156	50.596705280363	3
10573	36856	51.296705280363	6
10573	36991	51.438214645693	6
10573	37339	51.746315195457	3
10573	37612	51.946315195457	1
10573	38138	52.352772616659	3
10573	38399	52.561621603256	1
10573	38804	52.963397081517	3
10573	39393	53.472045616555	5
10573	40094	53.98312568811	4
10573	40705	54.311722200647	4
10573	41806	55.115875009652	8
10573	42281	55.515875009652	3
10573	42613	55.725223931887	2
10573	43390	56.425223931887	6
10573	44313	57.244733727969	7
10573	44824	57.654475069837	3
10573	46413	58.963668477042	13
10573	46783	59.263668477042	2
10573	47486	59.875381443205	9
10573	47747	60.079143591492	2
10573	48663	60.779143591492	7
10573	49382	61.279435390826	4
10573	49615	61.481106859497	1
10573	49887	61.68121163309	2
10573	50516	62.18121163309	4
10573	50928	62.497664457785	2
10573	51070	62.603622694007	1
10573	52144	63.603622694007	9
10573	53736	65.010899602509	17
10573	54100	65.310899602509	2
10573	54886	65.917237527147	6
10573	55532	66.417237527147	4
10573	56364	66.979956803207	2
10573	57359	67.781227191724	9
10573	57678	68.081227191724	2
10573	58048	68.381327291724	3
10573	58758	68.881327291724	4
10573	59333	69.28659914876	1
10573	59607	69.490869137657	6
10573	59613	69.503370623903	6
10573	59924	69.792955885323	4
10573	60047	69.896380586722	3
10573	60307	70.101161431073	2
10573	60982	70.801161431073	6
10573	61204	71.009423876754	1
10573	61448	71.209927747584	2
10573	62225	71.809927747584	5
10573	62537	72.11609685989	2
10573	62939	72.425166920916	4
10573	63034	72.537196280789	3
10573	63332	72.733298564577	2
10573	63350	72.746087975799	1
10573	63420	72.781619419632	1
10573	63705	72.9837754211	2
10573	64206	73.3837754211	3
10573	64643	73.790212987787	3
10573	65252	74.292918344074	4
10573	65685	74.60016716387	3
10573	65753	74.68356147651	4
10573	65775	74.696909345426	2
10573	66427	75.200703478608	6
10573	66753	75.50265648959	3
10573	66976	75.702848292491	1
10573	67168	75.907353518297	1
10573	67415	76.101481278871	3
10573	67583	76.216801321226	2
10573	68591	77.116901421226	10
10573	68893	77.416901421226	2
10573	69034	77.525209744164	0
10573	69663	78.034400230481	4
10573	70036	78.344951944025	3
10573	70240	78.496376230601	6
10573	70690	78.896476330601	4
10573	71233	79.296476330601	3
10573	72277	80.103828249054	7
10573	72389	80.195451897061	4
10573	72545	80.311460551626	1
10573	73138	80.809456139723	3
10573	73186	80.835679755223	5
10573	73212	80.846504749851	5
10573	73553	81.152108641642	3
10573	74157	81.652108641642	5
10573	74527	81.952208741642	3
10573	75548	82.752208741642	7
10573	76034	83.242289005404	6
10573	76393	83.557120959278	7
10573	76501	83.644690176018	3
10573	76756	83.848094825657	10
10573	76980	84.051603796915	4
10573	77602	84.55836243426	5
10573	78789	85.582977026984	4
10573	80254	86.583077126984	11
10573	80757	86.983077126984	3
10573	81270	87.393797694153	3
10573	81815	87.934317428279	2
10573	82243	88.335653835009	3
10573	82371	88.441485947903	1
10573	83222	89.141485947903	6
10573	84168	89.946787077087	7
10573	84483	90.151542628975	2
10573	85851	91.151542628975	12
10573	86870	92.060376188801	8
10573	87331	92.531025903348	1
10573	87573	92.738279260931	1
10573	87583	92.745886534803	1
10573	88139	93.241192508103	4
10573	88150	93.252424149903	6
10573	88574	93.559032478707	3
10573	89264	94.159032478707	5
10573	90110	94.865435495978	6
10573	90528	95.171022546263	4
10573	91379	95.882318705114	4
10573	91684	96.091477996471	2
10573	92201	96.491477996471	3
10573	92673	96.899586462414	3
10573	93111	97.401671572519	4
10573	93772	98.105320739502	6
10573	94419	98.809845378843	6
10573	94820	99.186917649127	3
10573	95232	99.529683786169	6
10573	95459	99.739014142958	1
10573	95620	99.887311836009	6
10573	95920	100.097022835197	2
10573	96862	100.797022835197	7
10573	96917	100.828790057572	4
10573	96989	100.893794336228	4
10573	97019	100.915075799699	2
10573	97129	101.006640886032	1
10573	97359	101.21250464508	2
10573	98658	102.335956544718	5
10573	99106	102.635956544718	2
10573	99378	102.83783433523	1
10573	99718	103.135482896033	1
10573	99938	103.346137803971	5
10573	100492	103.941974387126	7
10573	101110	104.542074487126	7
10573	102377	105.542074487126	9
10573	102507	105.637955147246	6
10573	103019	106.047022094702	3
10573	103138	106.146485285696	5
10573	103305	106.255434523705	1
10573	103927	106.755534623705	5
10573	104827	107.455534623705	6
10573	105401	108.05955636783	5
10573	105763	108.37127402113	2
10573	106262	108.771591282359	4
10573	107223	109.671591282359	9
10573	107720	110.079553958755	3
10573	107801	110.17019532871	6
10573	108251	110.57029542871	4
10573	108834	111.07029542871	4
10573	109032	111.270677160743	2
10573	109156	111.419778638508	1
10573	109262	111.525702728558	1
10573	109916	112.142498268423	6
10573	110176	112.344639704355	2
10573	110624	112.744639704355	3
10573	111054	113.045921918744	3
10573	111519	113.455324466336	3
10573	111786	113.656969498666	1
10573	112187	114.04434460271	2
10573	112345	114.14444470271	1
10573	112780	114.54444470271	3
10573	113140	114.853164432439	2
10573	113379	115.05580370731	1
10573	113681	115.261492408744	2
10573	114047	115.561492408744	2
10573	114266	115.764967510571	1
10573	114746	116.170400836715	3
10573	114830	116.229169810061	3
10573	115147	116.477490376134	2
10573	115225	116.535399023118	2
10573	115495	116.7706838921	6
10573	115519	116.784418840271	2
10573	115567	116.840264500622	2
10573	116750	117.850086846711	10
10573	117917	118.850086846711	9
10573	118311	119.158086199549	2
10573	119014	119.659966230825	5
10573	119271	119.859966230825	1
10573	119432	119.967304395498	1
10573	120058	120.467304395498	4
10573	120361	120.764693183635	7
10573	122085	122.26665978912	15
10573	122915	122.86665978912	5
10573	123606	123.37043122145	4
10573	123761	123.477566702995	1
10573	124158	123.790634739917	2
10573	124606	124.193548596118	4
10573	124731	124.325797065192	8
10573	125008	124.534044077561	2
10573	125748	125.134044077561	6
10573	126242	125.529779800277	2
10573	126479	125.734122682154	6
10573	126736	125.942467598256	2
10573	127403	126.642467598256	6
10573	127747	126.951818348061	2
10573	128154	127.254376699978	3
10573	130051	128.754762104081	15
10573	130595	129.266553474009	4
10573	131176	129.766830213536	5
10573	131560	130.075427990549	2
10573	131813	130.329244747807	15
10573	132380	130.829569153766	5
10573	133900	131.903343751496	5
10573	134558	132.403343751496	4
10573	134780	132.608304633097	1
10573	135082	132.816950346002	1
10573	135353	133.02011351499	2
10573	136648	134.029406542509	7
10573	136808	134.22011351499	14
10574	141	20.1000001	0.875
10574	447	20.6000001	0.5
10574	676	20.909867327564	0.75
10574	1373	21.61388188682	0.125
10574	2231	22.31388188682	0.125
10574	2948	22.82521029099	0.5
10574	3343	23.128699009953	0.375
10574	3523	23.313113246508	-1
10574	3673	23.418694853119	0.875
10574	4807	24.318694853119	0
10574	5303	24.727954772519	0.625
10574	5575	24.928414247731	0.875
10574	6787	26.031020428995	-0.375
10574	7944	27.031020428995	-0.5
10574	8352	27.340516160524	0.75
10574	9255	28.040616260524	0
10574	9871	28.640616260524	0.25
10574	10241	28.945320261182	0.75
10574	10604	29.254340501776	0.625
10574	10977	29.554340501776	0.75
10574	12115	30.462182465418	-0.125
10574	12342	30.659267908389	0.5
10574	12790	30.972087198344	0.75
10574	12963	31.086195435465	0.75
10574	13057	31.164105923263	0.25
10574	13182	31.273339061056	0.75
10574	13221	31.29016996446	0.875
10574	13436	31.488099500065	0.5
10574	13445	31.490577742937	0.875
10574	14319	32.192156959359	0.125
10574	15324	33.092156959359	-0.125
10574	15691	33.499767505773	0.5
10574	16057	33.899767505773	0.625
10574	17441	35.317431241219	0
10574	17673	35.50487314437	-1.125
10574	17718	35.551933676215	0.75
10574	18013	35.820838601734	0.75
10574	18016	35.821817682002	0.375
10574	18760	36.422122326027	0.25
10574	19813	37.422122326027	-0.25
10574	20409	37.926822942513	0.5
10574	20513	38.031848873199	0.375
10574	20791	38.236506313256	0.625
10574	20928	38.338400153869	0.75
10574	21081	38.443731517238	0.875
10574	21190	38.543831617238	0.875
10574	21789	39.143831617238	0.375
10574	22022	39.350557143089	0.875
10574	22323	39.563481641613	0.75
10574	22782	39.970315301824	0.625
10574	23089	40.174474218485	0.75
10574	23980	40.766670660587	0.5
10574	24126	40.874474218485	0.25
10574	24334	40.984026760385	0.875
10574	24732	41.288251445822	0.75
10574	24968	41.488747307461	0.75
10574	25418	41.899421800293	0.625
10574	26804	43.066914571418	0.125
10574	27475	43.575267219479	0.625
10574	28892	44.875267219479	-0.875
10574	29121	45.08484136725	0.75
10574	29366	45.28484136725	0.875
10574	29946	45.717333549531	0.5
10574	30315	46.017333549531	0.77777777612209
10574	30584	46.217357386354	0.875
10574	30592	46.220096139546	0.875
10574	31140	46.713611510513	0.625
10574	31732	47.122444953669	0.625
10574	32197	47.444885966901	0.5
10574	32573	47.748159736214	0.5
10574	33178	48.248159736214	0.5
10574	34611	49.275245582051	0.75
10574	34847	49.475245582051	0.875
10574	35153	49.779348967293	0.75
10574	35620	50.184417669555	0.625
10574	35808	50.357289040686	0.875
10574	35863	50.391239530164	0.75
10574	36156	50.596705280363	0.625
10574	36856	51.296705280363	0.25
10574	36991	51.438214645693	0.25
10574	37339	51.746315195457	0.625
10574	37612	51.946315195457	0.875
10574	38138	52.352772616659	0.625
10574	38399	52.561621603256	0.875
10574	38804	52.963397081517	0.625
10574	39393	53.472045616555	0.44444441795349
10574	40094	53.98312568811	0.5
10574	40705	54.311722200647	0.5
10574	41806	55.115875009652	0
10574	42281	55.515875009652	0.625
10574	42613	55.725223931887	0.75
10574	43390	56.425223931887	0.25
10574	44313	57.244733727969	0.125
10574	44824	57.654475069837	0.625
10574	46413	58.963668477042	-0.625
10574	46783	59.263668477042	0.75
10574	47486	59.875381443205	-0.125
10574	47747	60.079143591492	0.75
10574	48663	60.779143591492	0.125
10574	49382	61.279435390826	0.5
10574	49615	61.481106859497	0.875
10574	49887	61.68121163309	0.75
10574	50516	62.18121163309	0.5
10574	50928	62.497664457785	0.75
10574	51070	62.603622694007	0.875
10574	52144	63.603622694007	-0.125
10574	53736	65.010899602509	-1.125
10574	54100	65.310899602509	0.75
10574	54886	65.917237527147	0.25
10574	55532	66.417237527147	0.5
10574	56364	66.979956803207	0.75
10574	57359	67.781227191724	-0.125
10574	57678	68.081227191724	0.75
10574	58048	68.381327291724	0.625
10574	58758	68.881327291724	0.5
10574	59333	69.28659914876	0.875
10574	59607	69.490869137657	0.25
10574	59613	69.503370623903	0.25
10574	59924	69.792955885323	0.5
10574	60047	69.896380586722	0.625
10574	60307	70.101161431073	0.75
10574	60982	70.801161431073	0.25
10574	61204	71.009423876754	0.875
10574	61448	71.209927747584	0.75
10574	62225	71.809927747584	0.375
10574	62537	72.11609685989	0.75
10574	62939	72.425166920916	0.5
10574	63034	72.537196280789	0.625
10574	63332	72.733298564577	0.75
10574	63350	72.746087975799	0.875
10574	63420	72.781619419632	0.875
10574	63705	72.9837754211	0.75
10574	64206	73.3837754211	0.625
10574	64643	73.790212987787	0.625
10574	65252	74.292918344074	0.5
10574	65685	74.60016716387	0.625
10574	65753	74.68356147651	0.5
10574	65775	74.696909345426	0.75
10574	66427	75.200703478608	0.25
10574	66753	75.50265648959	0.625
10574	66976	75.702848292491	0.875
10574	67168	75.907353518297	0.875
10574	67415	76.101481278871	0.625
10574	67583	76.216801321226	0.75
10574	68591	77.116901421226	-0.25
10574	68893	77.416901421226	0.75
10574	69034	77.525209744164	1
10574	69663	78.034400230481	0.5
10574	70036	78.344951944025	0.625
10574	70240	78.496376230601	0.25
10574	70690	78.896476330601	0.5
10574	71233	79.296476330601	0.625
10574	72277	80.103828249054	0.125
10574	72389	80.195451897061	0.5
10574	72545	80.311460551626	0.875
10574	73138	80.809456139723	0.625
10574	73186	80.835679755223	0.375
10574	73212	80.846504749851	0.375
10574	73553	81.152108641642	0.625
10574	74157	81.652108641642	0.375
10574	74527	81.952208741642	0.625
10574	75548	82.752208741642	0.125
10574	76034	83.242289005404	0.25
10574	76393	83.557120959278	0.125
10574	76501	83.644690176018	0.625
10574	76756	83.848094825657	-0.25
10574	76980	84.051603796915	0.5
10574	77602	84.55836243426	0.375
10574	78789	85.582977026984	0.5
10574	80254	86.583077126984	-0.375
10574	80757	86.983077126984	0.625
10574	81270	87.393797694153	0.625
10574	81815	87.934317428279	0.75
10574	82243	88.335653835009	0.625
10574	82371	88.441485947903	0.875
10574	83222	89.141485947903	0.25
10574	84168	89.946787077087	0.125
10574	84483	90.151542628975	0.75
10574	85851	91.151542628975	-0.5
10574	86870	92.060376188801	0
10574	87331	92.531025903348	0.875
10574	87573	92.738279260931	0.875
10574	87583	92.745886534803	0.875
10574	88139	93.241192508103	0.5
10574	88150	93.252424149903	0.25
10574	88574	93.559032478707	0.625
10574	89264	94.159032478707	0.375
10574	90110	94.865435495978	0.25
10574	90528	95.171022546263	0.5
10574	91379	95.882318705114	0.5
10574	91684	96.091477996471	0.75
10574	92201	96.491477996471	0.625
10574	92673	96.899586462414	0.625
10574	93111	97.401671572519	0.5
10574	93772	98.105320739502	0.25
10574	94419	98.809845378843	0.25
10574	94820	99.186917649127	0.66666665673256
10574	95232	99.529683786169	0.25
10574	95459	99.739014142958	0.875
10574	95620	99.887311836009	0.25
10574	95920	100.097022835197	0.75
10574	96862	100.797022835197	0.125
10574	96917	100.828790057572	0.5
10574	96989	100.893794336228	0.5
10574	97019	100.915075799699	0.75
10574	97129	101.006640886032	0.875
10574	97359	101.21250464508	0.75
10574	98658	102.335956544718	0.375
10574	99106	102.635956544718	0.75
10574	99378	102.83783433523	0.875
10574	99718	103.135482896033	0.875
10574	99938	103.346137803971	0.375
10574	100492	103.941974387126	0.125
10574	101110	104.542074487126	0.125
10574	102377	105.542074487126	-0.125
10574	102507	105.637955147246	0.25
10574	103019	106.047022094702	0.625
10574	103138	106.146485285696	0.375
10574	103305	106.255434523705	0.875
10574	103927	106.755534623705	0.375
10574	104827	107.455534623705	0.25
10574	105401	108.05955636783	0.375
10574	105763	108.37127402113	0.75
10574	106262	108.771591282359	0.5
10574	107223	109.671591282359	-0.125
10574	107720	110.079553958755	0.625
10574	107801	110.17019532871	0.25
10574	108251	110.57029542871	0.5
10574	108834	111.07029542871	0.5
10574	109032	111.270677160743	0.75
10574	109156	111.419778638508	0.875
10574	109262	111.525702728558	0.875
10574	109916	112.142498268423	0.25
10574	110176	112.344639704355	0.75
10574	110624	112.744639704355	0.625
10574	111054	113.045921918744	0.625
10574	111519	113.455324466336	0.625
10574	111786	113.656969498666	0.875
10574	112187	114.04434460271	0.75
10574	112345	114.14444470271	0.875
10574	112780	114.54444470271	0.625
10574	113140	114.853164432439	0.75
10574	113379	115.05580370731	0.875
10574	113681	115.261492408744	0.77777777612209
10574	114047	115.561492408744	0.75
10574	114266	115.764967510571	0.875
10574	114746	116.170400836715	0.625
10574	114830	116.229169810061	0.625
10574	115147	116.477490376134	0.75
10574	115225	116.535399023118	0.75
10574	115495	116.7706838921	0.25
10574	115519	116.784418840271	0.75
10574	115567	116.840264500622	0.75
10574	116750	117.850086846711	-0.25
10574	117917	118.850086846711	-0.125
10574	118311	119.158086199549	0.75
10574	119014	119.659966230825	0.375
10574	119271	119.859966230825	0.875
10574	119432	119.967304395498	0.875
10574	120058	120.467304395498	0.5
10574	120361	120.764693183635	0.125
10574	122085	122.26665978912	-0.875
10574	122915	122.86665978912	0.375
10574	123606	123.37043122145	0.5
10574	123761	123.477566702995	0.875
10574	124158	123.790634739917	0.75
10574	124606	124.193548596118	0.5
10574	124731	124.325797065192	0
10574	125008	124.534044077561	0.75
10574	125748	125.134044077561	0.25
10574	126242	125.529779800277	0.75
10574	126479	125.734122682154	0.25
10574	126736	125.942467598256	0.75
10574	127403	126.642467598256	0.25
10574	127747	126.951818348061	0.75
10574	128154	127.254376699978	0.625
10574	130051	128.754762104081	-0.875
10574	130595	129.266553474009	0.5
10574	131176	129.766830213536	0.375
10574	131560	130.075427990549	0.75
10574	131813	130.329244747807	-0.875
10574	132380	130.829569153766	0.375
10574	133900	131.903343751496	0.375
10574	134558	132.403343751496	0.5
10574	134780	132.608304633097	0.875
10574	135082	132.816950346002	0.875
10574	135353	133.02011351499	0.75
10574	136648	134.029406542509	0.125
10574	136808	134.22011351499	-0.75
10575	141	20.1000001	0.1
10575	447	20.6000001	0.5
10575	676	20.909867327564	0.3
10575	1373	21.61388188682	0.7
10575	2231	22.31388188682	0.7
10575	2948	22.82521029099	0.5
10575	3343	23.128699009953	0.6
10575	3523	23.313113246508	1.5
10575	3673	23.418694853119	0.1
10575	4807	24.318694853119	0.9
10575	5303	24.727954772519	0.4
10575	5575	24.928414247731	0.2
10575	6787	26.031020428995	1.1
10575	7944	27.031020428995	1
10575	8352	27.340516160524	0.3
10575	9255	28.040616260524	0.7
10575	9871	28.640616260524	0.6
10575	10241	28.945320261182	0.3
10575	10604	29.254340501776	0.3
10575	10977	29.554340501776	0.3
10575	12115	30.462182465418	0.9
10575	12342	30.659267908389	0.5
10575	12790	30.972087198344	0.3
10575	12963	31.086195435465	0.3
10575	13057	31.164105923263	0.7
10575	13182	31.273339061056	0.3
10575	13221	31.29016996446	0.2
10575	13436	31.488099500065	0.4
10575	13445	31.490577742937	0.2
10575	14319	32.192156959359	0.7
10575	15324	33.092156959359	0.9
10575	15691	33.499767505773	0.4
10575	16057	33.899767505773	0.4
10575	17441	35.317431241219	0.9
10575	17673	35.50487314437	1.6
10575	17718	35.551933676215	0.3
10575	18013	35.820838601734	0.3
10575	18016	35.821817682002	0.5
10575	18760	36.422122326027	0.6
10575	19813	37.422122326027	1
10575	20409	37.926822942513	0.5
10575	20513	38.031848873199	0.6
10575	20791	38.236506313256	0.3
10575	20928	38.338400153869	0.3
10575	21081	38.443731517238	0.2
10575	21190	38.543831617238	0.1
10575	21789	39.143831617238	0.6
10575	22022	39.350557143089	0.2
10575	22323	39.563481641613	0.2
10575	22782	39.970315301824	0.4
10575	23089	40.174474218485	0.2
10575	23980	40.766670660587	0.4
10575	24126	40.874474218485	0.7
10575	24334	40.984026760385	0.1
10575	24732	41.288251445822	0.3
10575	24968	41.488747307461	0.2
10575	25418	41.899421800293	0.4
10575	26804	43.066914571418	0.7
10575	27475	43.575267219479	0.3
10575	28892	44.875267219479	1.3
10575	29121	45.08484136725	0.2
10575	29366	45.28484136725	0.2
10575	29946	45.717333549531	0.4
10575	30315	46.017333549531	0.3
10575	30584	46.217357386354	0.2
10575	30592	46.220096139546	0.2
10575	31140	46.713611510513	0.3
10575	31732	47.122444953669	0.4
10575	32197	47.444885966901	0.5
10575	32573	47.748159736214	0.3
10575	33178	48.248159736214	0.5
10575	34611	49.275245582051	0.2
10575	34847	49.475245582051	0.2
10575	35153	49.779348967293	0.3
10575	35620	50.184417669555	0.4
10575	35808	50.357289040686	0.2
10575	35863	50.391239530164	0.2
10575	36156	50.596705280363	0.2
10575	36856	51.296705280363	0.7
10575	36991	51.438214645693	0.7
10575	37339	51.746315195457	0.3
10575	37612	51.946315195457	0.2
10575	38138	52.352772616659	0.4
10575	38399	52.561621603256	0.2
10575	38804	52.963397081517	0.4
10575	39393	53.472045616555	0.5
10575	40094	53.98312568811	0.5
10575	40705	54.311722200647	0.5
10575	41806	55.115875009652	0.8
10575	42281	55.515875009652	0.4
10575	42613	55.725223931887	0.2
10575	43390	56.425223931887	0.7
10575	44313	57.244733727969	0.8
10575	44824	57.654475069837	0.4
10575	46413	58.963668477042	1.3
10575	46783	59.263668477042	0.3
10575	47486	59.875381443205	0.8
10575	47747	60.079143591492	0.2
10575	48663	60.779143591492	0.7
10575	49382	61.279435390826	0.5
10575	49615	61.481106859497	0.2
10575	49887	61.68121163309	0.2
10575	50516	62.18121163309	0.5
10575	50928	62.497664457785	0.3
10575	51070	62.603622694007	0.1
10575	52144	63.603622694007	1
10575	53736	65.010899602509	1.4
10575	54100	65.310899602509	0.3
10575	54886	65.917237527147	0.6
10575	55532	66.417237527147	0.5
10575	56364	66.979956803207	0.3
10575	57359	67.781227191724	0.8
10575	57678	68.081227191724	0.3
10575	58048	68.381327291724	0.3
10575	58758	68.881327291724	0.5
10575	59333	69.28659914876	0.2
10575	59607	69.490869137657	0.6
10575	59613	69.503370623903	0.6
10575	59924	69.792955885323	0.5
10575	60047	69.896380586722	0.4
10575	60307	70.101161431073	0.2
10575	60982	70.801161431073	0.7
10575	61204	71.009423876754	0.2
10575	61448	71.209927747584	0.2
10575	62225	71.809927747584	0.6
10575	62537	72.11609685989	0.3
10575	62939	72.425166920916	0.3
10575	63034	72.537196280789	0.4
10575	63332	72.733298564577	0.3
10575	63350	72.746087975799	0.2
10575	63420	72.781619419632	0.2
10575	63705	72.9837754211	0.2
10575	64206	73.3837754211	0.4
10575	64643	73.790212987787	0.4
10575	65252	74.292918344074	0.5
10575	65685	74.60016716387	0.3
10575	65753	74.68356147651	0.5
10575	65775	74.696909345426	0.3
10575	66427	75.200703478608	0.5
10575	66753	75.50265648959	0.3
10575	66976	75.702848292491	0.2
10575	67168	75.907353518297	0.2
10575	67415	76.101481278871	0.4
10575	67583	76.216801321226	0.3
10575	68591	77.116901421226	0.9
10575	68893	77.416901421226	0.3
10575	69034	77.525209744164	0.1
10575	69663	78.034400230481	0.5
10575	70036	78.344951944025	0.3
10575	70240	78.496376230601	0.6
10575	70690	78.896476330601	0.4
10575	71233	79.296476330601	0.4
10575	72277	80.103828249054	0.8
10575	72389	80.195451897061	0.4