version 2
run Stability-55-20130526-18:50:43-1898
attr configname Stability
attr datetime 20130526-18:50:43
attr experiment Stability
attr inifile omnetpp.ini
attr iterationvars $0=1e1
attr iterationvars2 "$0=1e1, $repetition=5"
attr measurement $0=1e1
attr network Network
attr processid 1898
attr repetition 5
attr replication #5
attr resultdir results
attr runnumber 55
attr seedset 55

vector 5431  Network.churner  inGoingSizeSig:vector  ETV
vector 5338  Network.dyn_peer[1]  lookupHopsSig:vector  ETV
vector 5339  Network.dyn_peer[1]  lookupStabilitySig:vector  ETV
vector 5340  Network.dyn_peer[1]  lookupTimeSig:vector  ETV
vector 5347  Network.dyn_peer[4]  lookupHopsSig:vector  ETV
vector 5348  Network.dyn_peer[4]  lookupStabilitySig:vector  ETV
vector 5349  Network.dyn_peer[4]  lookupTimeSig:vector  ETV
vector 5362  Network.dyn_peer[9]  lookupHopsSig:vector  ETV
vector 5363  Network.dyn_peer[9]  lookupStabilitySig:vector  ETV
vector 5364  Network.dyn_peer[9]  lookupTimeSig:vector  ETV
vector 5344  Network.dyn_peer[3]  lookupHopsSig:vector  ETV
vector 5345  Network.dyn_peer[3]  lookupStabilitySig:vector  ETV
vector 5346  Network.dyn_peer[3]  lookupTimeSig:vector  ETV
vector 5350  Network.dyn_peer[5]  lookupHopsSig:vector  ETV
vector 5351  Network.dyn_peer[5]  lookupStabilitySig:vector  ETV
vector 5352  Network.dyn_peer[5]  lookupTimeSig:vector  ETV
vector 5356  Network.dyn_peer[7]  lookupHopsSig:vector  ETV
vector 5357  Network.dyn_peer[7]  lookupStabilitySig:vector  ETV
vector 5358  Network.dyn_peer[7]  lookupTimeSig:vector  ETV
vector 5359  Network.dyn_peer[8]  lookupHopsSig:vector  ETV
vector 5360  Network.dyn_peer[8]  lookupStabilitySig:vector  ETV
vector 5361  Network.dyn_peer[8]  lookupTimeSig:vector  ETV
vector 5365  Network.dyn_peer[10]  lookupHopsSig:vector  ETV
vector 5366  Network.dyn_peer[10]  lookupStabilitySig:vector  ETV
vector 5367  Network.dyn_peer[10]  lookupTimeSig:vector  ETV
vector 5377  Network.dyn_peer[14]  lookupHopsSig:vector  ETV
vector 5378  Network.dyn_peer[14]  lookupStabilitySig:vector  ETV
vector 5379  Network.dyn_peer[14]  lookupTimeSig:vector  ETV
vector 5383  Network.dyn_peer[16]  lookupHopsSig:vector  ETV
vector 5384  Network.dyn_peer[16]  lookupStabilitySig:vector  ETV
vector 5385  Network.dyn_peer[16]  lookupTimeSig:vector  ETV
vector 5335  Network.dyn_peer[0]  lookupHopsSig:vector  ETV
vector 5336  Network.dyn_peer[0]  lookupStabilitySig:vector  ETV
vector 5337  Network.dyn_peer[0]  lookupTimeSig:vector  ETV
vector 5395  Network.dyn_peer[20]  lookupHopsSig:vector  ETV
vector 5396  Network.dyn_peer[20]  lookupStabilitySig:vector  ETV
vector 5397  Network.dyn_peer[20]  lookupTimeSig:vector  ETV
vector 5371  Network.dyn_peer[12]  lookupHopsSig:vector  ETV
vector 5372  Network.dyn_peer[12]  lookupStabilitySig:vector  ETV
vector 5373  Network.dyn_peer[12]  lookupTimeSig:vector  ETV
vector 5374  Network.dyn_peer[13]  lookupHopsSig:vector  ETV
vector 5375  Network.dyn_peer[13]  lookupStabilitySig:vector  ETV
vector 5376  Network.dyn_peer[13]  lookupTimeSig:vector  ETV
vector 5407  Network.dyn_peer[24]  lookupHopsSig:vector  ETV
vector 5408  Network.dyn_peer[24]  lookupStabilitySig:vector  ETV
vector 5409  Network.dyn_peer[24]  lookupTimeSig:vector  ETV
vector 5380  Network.dyn_peer[15]  lookupHopsSig:vector  ETV
vector 5381  Network.dyn_peer[15]  lookupStabilitySig:vector  ETV
vector 5382  Network.dyn_peer[15]  lookupTimeSig:vector  ETV
vector 5353  Network.dyn_peer[6]  lookupHopsSig:vector  ETV
vector 5354  Network.dyn_peer[6]  lookupStabilitySig:vector  ETV
vector 5355  Network.dyn_peer[6]  lookupTimeSig:vector  ETV
vector 5413  Network.dyn_peer[26]  lookupHopsSig:vector  ETV
vector 5414  Network.dyn_peer[26]  lookupStabilitySig:vector  ETV
vector 5415  Network.dyn_peer[26]  lookupTimeSig:vector  ETV
vector 5386  Network.dyn_peer[17]  lookupHopsSig:vector  ETV
vector 5387  Network.dyn_peer[17]  lookupStabilitySig:vector  ETV
vector 5388  Network.dyn_peer[17]  lookupTimeSig:vector  ETV
vector 5368  Network.dyn_peer[11]  lookupHopsSig:vector  ETV
vector 5369  Network.dyn_peer[11]  lookupStabilitySig:vector  ETV
vector 5370  Network.dyn_peer[11]  lookupTimeSig:vector  ETV
vector 5398  Network.dyn_peer[21]  lookupHopsSig:vector  ETV
vector 5399  Network.dyn_peer[21]  lookupStabilitySig:vector  ETV
vector 5400  Network.dyn_peer[21]  lookupTimeSig:vector  ETV
vector 5341  Network.dyn_peer[2]  lookupHopsSig:vector  ETV
vector 5342  Network.dyn_peer[2]  lookupStabilitySig:vector  ETV
vector 5343  Network.dyn_peer[2]  lookupTimeSig:vector  ETV
vector 5389  Network.dyn_peer[18]  lookupHopsSig:vector  ETV
vector 5390  Network.dyn_peer[18]  lookupStabilitySig:vector  ETV
vector 5391  Network.dyn_peer[18]  lookupTimeSig:vector  ETV
vector 5392  Network.dyn_peer[19]  lookupHopsSig:vector  ETV
vector 5393  Network.dyn_peer[19]  lookupStabilitySig:vector  ETV
vector 5394  Network.dyn_peer[19]  lookupTimeSig:vector  ETV
vector 5422  Network.dyn_peer[29]  lookupHopsSig:vector  ETV
vector 5423  Network.dyn_peer[29]  lookupStabilitySig:vector  ETV
vector 5424  Network.dyn_peer[29]  lookupTimeSig:vector  ETV
vector 5410  Network.dyn_peer[25]  lookupHopsSig:vector  ETV
vector 5411  Network.dyn_peer[25]  lookupStabilitySig:vector  ETV
vector 5412  Network.dyn_peer[25]  lookupTimeSig:vector  ETV
vector 5419  Network.dyn_peer[28]  lookupHopsSig:vector  ETV
vector 5420  Network.dyn_peer[28]  lookupStabilitySig:vector  ETV
vector 5421  Network.dyn_peer[28]  lookupTimeSig:vector  ETV
vector 5425  Network.dyn_peer[30]  lookupHopsSig:vector  ETV
vector 5426  Network.dyn_peer[30]  lookupStabilitySig:vector  ETV
vector 5427  Network.dyn_peer[30]  lookupTimeSig:vector  ETV
vector 5416  Network.dyn_peer[27]  lookupHopsSig:vector  ETV
vector 5417  Network.dyn_peer[27]  lookupStabilitySig:vector  ETV
vector 5418  Network.dyn_peer[27]  lookupTimeSig:vector  ETV
vector 5428  Network.dyn_peer[31]  lookupHopsSig:vector  ETV
vector 5429  Network.dyn_peer[31]  lookupStabilitySig:vector  ETV
vector 5430  Network.dyn_peer[31]  lookupTimeSig:vector  ETV
vector 5404  Network.dyn_peer[23]  lookupHopsSig:vector  ETV
vector 5405  Network.dyn_peer[23]  lookupStabilitySig:vector  ETV
vector 5406  Network.dyn_peer[23]  lookupTimeSig:vector  ETV
vector 5401  Network.dyn_peer[22]  lookupHopsSig:vector  ETV
vector 5402  Network.dyn_peer[22]  lookupStabilitySig:vector  ETV
vector 5403  Network.dyn_peer[22]  lookupTimeSig:vector  ETV
5335	192	20.31	3
5335	572	20.927784916515	0
5335	1545	21.927784916515	9
5335	1830	22.141967116036	1
5335	1856	22.166588522865	1
5335	2570	22.682978249221	5
5335	3630	23.682978249221	9
5335	4526	24.291992089295	7
5335	4579	24.318841495579	3
5335	4848	24.511224622228	1
5335	5261	24.821324622228	3
5335	5669	25.221324622228	3
5335	6022	25.521540074914	3
5335	6181	25.631640074914	1
5335	6837	26.231640074914	6
5335	8207	27.341027694833	12
5335	8889	27.942556949362	5
5335	9205	28.151353964429	2
5335	9211	28.155456393706	4
5335	9447	28.338136439779	2
5335	9640	28.537451943497	17
5335	9756	28.655409347862	1
5335	9947	28.855409347862	1
5335	10313	29.164433355699	4
5335	10703	29.486352205648	6
5335	11018	29.670098964478	4
5335	11085	29.717539204078	4
5335	11176	29.786452205648	9
5335	11512	29.996712301057	2
5335	11951	30.296712301057	2
5335	13077	31.296860857454	9
5335	15007	32.913023432257	17
5335	15799	33.516394101131	5
5335	16230	33.875569155357	3
5335	16638	34.19235783068	3
5335	16888	34.39235783068	1
5335	17280	34.792679263271	4
5335	17503	35.011712989327	1
5335	17881	35.321812989327	4
5335	18654	35.921812989327	6
5335	19025	36.240275581074	2
5335	19630	36.869161546769	5
5335	20537	37.646728401283	2
5335	20974	37.95843137418	3
5335	21397	38.35843137418	4
5335	21746	38.660590053166	2
5335	21778	38.694098727245	5
5335	22001	38.900762285764	1
5335	22569	39.389048661751	6
5335	23018	39.816263788231	8
5335	24060	40.736189205851	10
5335	24322	41.036189205851	2
5335	25280	41.94226811292	8
5335	25826	42.345541716864	3
5335	26027	42.549740995935	1
5335	26414	42.853851853891	2
5335	26996	43.37263313269	5
5335	27407	43.77263313269	3
5335	28021	44.375632144543	5
5335	28696	45.08425220566	6
5335	28887	45.251027987177	5
5335	29114	45.458505957342	1
5335	29169	45.528688395935	1
5335	29604	45.828988508146	2
5335	29613	45.835620776897	2
5335	29743	45.888476121636	9
5335	30427	46.408808260154	6
5335	30850	46.808808260154	3
5335	31186	47.115007663272	2
5335	31688	47.529540761116	3
5335	31865	47.670302632239	7
5335	32412	48.104786717993	4
5335	33007	48.604786717993	4
5335	33383	48.91014066916	2
5335	33749	49.185949048855	2
5335	34097	49.486131586053	2
5335	34416	49.720382853057	7
5335	36421	51.530482853057	22
5335	37892	52.833514983188	13
5335	38435	53.250882460958	4
5335	39121	53.750882460958	4
5335	39432	53.953810563179	1
5335	39676	54.163401143374	1
5335	40150	54.480038085386	4
5335	41010	55.180038085386	8
5335	41246	55.39349870565	1
5335	41302	55.443922501705	1
5335	41553	55.703706184639	2
5335	41608	55.749547135746	2
5335	41864	55.961172157933	2
5335	42323	56.361172157933	4
5335	42805	56.767344849889	3
5335	43137	57.071353875053	2
5335	43146	57.072883680577	3
5335	43793	57.59470173657	6
5335	44540	58.39470173657	7
5335	45206	58.90480173657	5
5335	45590	59.20480173657	2
5335	46474	59.912764442877	7
5335	46989	60.422864442877	5
5335	47625	61.022864442877	5
5335	48744	61.933611447864	9
5335	48817	61.97411793289	5
5335	49330	62.304320754486	3
5335	50205	62.91842188415	4
5335	50805	63.41842188415	5
5335	51096	63.628724761535	1
5335	51267	63.738824761535	1
5335	51988	64.338824761535	5
5335	52013	64.348924761535	0
5335	52861	64.948924761535	5
5335	53127	65.154897624891	1
5335	53506	65.527575946338	3
5335	53699	65.664068609952	4
5335	53897	65.831585797995	2
5335	54186	66.041501009207	1
5335	54362	66.180827707565	4
5335	54561	66.299192231812	1
5335	55213	66.899192231812	5
5335	55508	67.208947884808	2
5335	56121	67.711668852192	4
5335	56346	67.828524537309	1
5335	56957	68.275114029429	2
5335	57022	68.349955440386	5
5335	57612	68.860055440386	5
5335	58198	69.367699986271	4
5335	58973	69.979361748723	5
5335	59650	70.587631994604	5
5335	59746	70.690454459539	5
5335	60119	71.001303722904	4
5335	60974	71.72890062737	2
5335	62462	72.92890062737	11
5335	62938	73.334285575551	3
5335	63137	73.511255701357	5
5335	63732	74.013568464427	4
5335	63957	74.14697231351	7
5335	64195	74.348955947305	1
5335	64562	74.654141697718	2
5335	64770	74.81946744537	8
5335	65513	75.438890195402	6
5335	65918	75.854916120141	2
5335	66088	76.038890195402	5
5335	66523	76.448990195402	4
5335	66691	76.648990195402	1
5335	67196	77.050261229056	3
5335	67378	77.253439417796	1
5335	68223	78.066916754234	8
5335	68558	78.368936276272	2
5335	69198	78.979036276272	6
5335	70258	79.89634854214	8
5335	70804	80.285325800363	1
5335	72445	81.498503073585	14
5335	73529	82.498503073585	10
5335	74084	82.93515589102	5
5335	74176	82.998574592597	5
5335	74347	83.13842283366	1
5335	74754	83.452354715566	4
5335	74991	83.656776022041	1
5335	76009	84.640564021615	8
5335	76350	84.962816769362	16
5335	76773	85.349680999868	6
5335	77304	85.773945018268	4
5335	77506	85.981229249481	1
5335	78436	86.808879930126	3
5335	78979	87.308879930126	4
5335	79808	88.012047201546	6
5335	81237	89.113533562684	11
5335	81542	89.315163278639	1
5335	82377	90.126489428885	8
5335	82696	90.426489428885	2
5335	83108	90.829935858932	3
5335	83453	91.140035858932	3
5335	84081	91.740035858932	6
5335	84928	92.459026116641	7
5335	85880	93.169126116641	7
5335	86430	93.669126116641	4
5335	86588	93.779226116641	1
5335	86941	94.079226116641	2
5335	87602	94.58763094937	5
5335	87883	94.79773094937	2
5335	88266	95.15839689172	1
5335	88342	95.19773094937	3
5335	88585	95.409680011479	3
5335	89229	96.009680011479	5
5335	89568	96.31840780635	2
5335	90128	96.827607911029	4
5335	90931	97.537461088451	7
5335	91014	97.603968161977	6
5335	91253	97.815449181823	1
5335	91483	98.024601964841	1
5335	91984	98.436009335915	4
5335	92480	98.836009335915	3
5335	92701	99.037086072744	1
5335	93227	99.440866995221	3
5335	93272	99.477033515856	3
5335	94549	100.55625570846	6
5335	95064	100.95625570846	3
5335	95696	101.463324664763	4
5335	96275	101.968977119381	4
5335	96775	102.366999260623	13
5335	97207	102.70565494533	11
5335	97559	102.979050623857	5
5335	98310	103.493176800346	6
5335	98559	103.693176800346	1
5335	98982	103.998891503922	2
5335	99522	104.408711188085	3
5335	99822	104.617139582125	1
5335	100358	105.036215691357	4
5335	100678	105.336215691357	2
5335	101277	105.838455058899	4
5335	101599	106.148555058899	3
5335	101956	106.448555058899	2
5335	102604	107.057707402346	5
5335	103006	107.369811271797	3
5335	103364	107.669811271797	2
5335	103694	107.977011720116	2
5335	104071	108.289713556218	3
5335	105236	109.289713556218	11
5335	105697	109.705101263181	3
5335	105905	109.906685154554	1
5335	105925	109.91422222514	5
5335	105995	110.001278736697	1
5335	106302	110.316098860842	3
5335	106834	110.816098860842	4
5335	107446	111.319572833967	4
5335	107517	111.382347772819	4
5335	107647	111.494565951613	1
5335	108356	112.142327894361	4
5335	109066	112.678247072026	6
5335	109378	112.978247072026	2
5335	109697	113.279946956694	2
5335	110087	113.594941545862	2
5335	110390	113.805347097608	5
5335	110621	114.004404365265	3
5335	110748	114.096762055016	5
5335	111300	114.511151857058	4
5335	111940	115.015982644121	4
5335	112192	115.224206872045	1
5335	112214	115.245507697895	1
5335	112393	115.348245998778	1
5335	112515	115.435098089856	2
5335	112789	115.631121617962	2
5335	112822	115.657578527988	2
5335	113110	115.873962009027	3
5335	113499	116.173962009027	2
5335	113711	116.383999812436	1
5335	114257	116.886561076099	5
5335	114395	116.999621080432	1
5335	114702	117.299621080432	2
5335	114983	117.548570275587	1
5335	115656	118.15980460848	6
5335	116010	118.45980460848	2
5335	116752	119.165900269351	6
5335	116833	119.219459346213	3
5335	117230	119.571988698488	3
5335	117264	119.596473536986	3
5335	117999	120.181469503107	5
5335	119203	121.201521224641	10
5335	119372	121.401521224641	1
5335	119819	121.794548276833	2
5335	119966	121.90313847319	5
5335	120103	122.01323847319	1
5335	121066	122.81323847319	7
5335	121307	123.02136762127	1
5335	121770	123.43692719821	4
5335	122131	123.73692719821	2
5335	122622	124.139243218523	3
5335	123009	124.449343218523	3
5335	123763	125.070175536976	3
5335	124688	125.886111604354	8
5335	124974	126.159988734644	6
5335	125123	126.270441530652	1
5335	125423	126.579302710443	2
5335	125914	126.987530170117	3
5335	126620	127.497630170117	5
5335	127339	128.097630170117	6
5335	127614	128.302974200077	2
5335	127822	128.538121974925	3
5335	128329	128.986377137804	2
5335	128474	129.140717758539	5
5335	128730	129.303767554923	10
5335	130220	130.522271274926	12
5335	131165	131.222271274926	6
5335	131433	131.434189984157	2
5335	132197	132.073686231362	2
5335	132851	132.673686231362	5
5335	133046	132.878975308217	1
5335	133653	133.486896064973	2
5335	134207	133.990230199107	4
5335	134616	134.294033932729	2
5335	135223	134.811994081442	5
5335	135451	135.018414476442	1
5335	135748	135.330526976233	2
5335	136654	136.140626976233	8
5335	137260	136.740626976233	5
5335	137263	136.741361478743	2
5336	192	20.31	0.625
5336	572	20.927784916515	1
5336	1545	21.927784916515	-0.125
5336	1830	22.141967116036	0.875
5336	1856	22.166588522865	0.875
5336	2570	22.682978249221	0.375
5336	3630	23.682978249221	-0.125
5336	4526	24.291992089295	0.125
5336	4579	24.318841495579	0.625
5336	4848	24.511224622228	0.875
5336	5261	24.821324622228	0.625
5336	5669	25.221324622228	0.625
5336	6022	25.521540074914	0.625
5336	6181	25.631640074914	0.875
5336	6837	26.231640074914	0.25
5336	8207	27.341027694833	-0.5
5336	8889	27.942556949362	0.375
5336	9205	28.151353964429	0.75
5336	9211	28.155456393706	0.5
5336	9447	28.338136439779	0.75
5336	9640	28.537451943497	-1.125
5336	9756	28.655409347862	0.875
5336	9947	28.855409347862	0.875
5336	10313	29.164433355699	0.5
5336	10703	29.486352205648	0.25
5336	11018	29.670098964478	0.5
5336	11085	29.717539204078	0.5
5336	11176	29.786452205648	-0.125
5336	11512	29.996712301057	0.75
5336	11951	30.296712301057	0.75
5336	13077	31.296860857454	-0.125
5336	15007	32.913023432257	-1.125
5336	15799	33.516394101131	0.375
5336	16230	33.875569155357	0.625
5336	16638	34.19235783068	0.625
5336	16888	34.39235783068	0.875
5336	17280	34.792679263271	0.5
5336	17503	35.011712989327	0.875
5336	17881	35.321812989327	0.5
5336	18654	35.921812989327	0.25
5336	19025	36.240275581074	0.75
5336	19630	36.869161546769	0.375
5336	20537	37.646728401283	0.75
5336	20974	37.95843137418	0.625
5336	21397	38.35843137418	0.5
5336	21746	38.660590053166	0.75
5336	21778	38.694098727245	0.375
5336	22001	38.900762285764	0.875
5336	22569	39.389048661751	0.25
5336	23018	39.816263788231	0
5336	24060	40.736189205851	-0.25
5336	24322	41.036189205851	0.75
5336	25280	41.94226811292	0
5336	25826	42.345541716864	0.625
5336	26027	42.549740995935	0.875
5336	26414	42.853851853891	0.75
5336	26996	43.37263313269	0.375
5336	27407	43.77263313269	0.625
5336	28021	44.375632144543	0.375
5336	28696	45.08425220566	0.25
5336	28887	45.251027987177	0.375
5336	29114	45.458505957342	0.875
5336	29169	45.528688395935	0.875
5336	29604	45.828988508146	0.75
5336	29613	45.835620776897	0.75
5336	29743	45.888476121636	-0.125
5336	30427	46.408808260154	0.25
5336	30850	46.808808260154	0.625
5336	31186	47.115007663272	0.75
5336	31688	47.529540761116	0.625
5336	31865	47.670302632239	0.125
5336	32412	48.104786717993	0.5
5336	33007	48.604786717993	0.5
5336	33383	48.91014066916	0.75
5336	33749	49.185949048855	0.75
5336	34097	49.486131586053	0.75
5336	34416	49.720382853057	0.125
5336	36421	51.530482853057	-1.75
5336	37892	52.833514983188	-0.625
5336	38435	53.250882460958	0.5
5336	39121	53.750882460958	0.5
5336	39432	53.953810563179	0.875
5336	39676	54.163401143374	0.875
5336	40150	54.480038085386	0.5
5336	41010	55.180038085386	0
5336	41246	55.39349870565	0.875
5336	41302	55.443922501705	0.875
5336	41553	55.703706184639	0.75
5336	41608	55.749547135746	0.75
5336	41864	55.961172157933	0.75
5336	42323	56.361172157933	0.5
5336	42805	56.767344849889	0.625
5336	43137	57.071353875053	0.75
5336	43146	57.072883680577	0.625
5336	43793	57.59470173657	0.25
5336	44540	58.39470173657	0.125
5336	45206	58.90480173657	0.375
5336	45590	59.20480173657	0.75
5336	46474	59.912764442877	0.125
5336	46989	60.422864442877	0.375
5336	47625	61.022864442877	0.375
5336	48744	61.933611447864	-0.125
5336	48817	61.97411793289	0.375
5336	49330	62.304320754486	0.625
5336	50205	62.91842188415	0.5
5336	50805	63.41842188415	0.375
5336	51096	63.628724761535	0.875
5336	51267	63.738824761535	0.875
5336	51988	64.338824761535	0.375
5336	52013	64.348924761535	1
5336	52861	64.948924761535	0.375
5336	53127	65.154897624891	0.875
5336	53506	65.527575946338	0.625
5336	53699	65.664068609952	0.5
5336	53897	65.831585797995	0.75
5336	54186	66.041501009207	0.875
5336	54362	66.180827707565	0.5
5336	54561	66.299192231812	0.875
5336	55213	66.899192231812	0.375
5336	55508	67.208947884808	0.75
5336	56121	67.711668852192	0.5
5336	56346	67.828524537309	0.875
5336	56957	68.275114029429	0.75
5336	57022	68.349955440386	0.375
5336	57612	68.860055440386	0.375
5336	58198	69.367699986271	0.5
5336	58973	69.979361748723	0.375
5336	59650	70.587631994604	0.375
5336	59746	70.690454459539	0.375
5336	60119	71.001303722904	0.5
5336	60974	71.72890062737	0.75
5336	62462	72.92890062737	-0.375
5336	62938	73.334285575551	0.625
5336	63137	73.511255701357	0.375
5336	63732	74.013568464427	0.5
5336	63957	74.14697231351	0.125
5336	64195	74.348955947305	0.875
5336	64562	74.654141697718	0.77777777612209
5336	64770	74.81946744537	0
5336	65513	75.438890195402	0.25
5336	65918	75.854916120141	0.75
5336	66088	76.038890195402	0.375
5336	66523	76.448990195402	0.5
5336	66691	76.648990195402	0.875
5336	67196	77.050261229056	0.625
5336	67378	77.253439417796	0.875
5336	68223	78.066916754234	0
5336	68558	78.368936276272	0.75
5336	69198	78.979036276272	0.25
5336	70258	79.89634854214	0
5336	70804	80.285325800363	0.875
5336	72445	81.498503073585	-0.75
5336	73529	82.498503073585	-0.25
5336	74084	82.93515589102	0.375
5336	74176	82.998574592597	0.375
5336	74347	83.13842283366	0.875
5336	74754	83.452354715566	0.5
5336	74991	83.656776022041	0.875
5336	76009	84.640564021615	0
5336	76350	84.962816769362	-1
5336	76773	85.349680999868	0.25
5336	77304	85.773945018268	0.5
5336	77506	85.981229249481	0.875
5336	78436	86.808879930126	0.625
5336	78979	87.308879930126	0.5
5336	79808	88.012047201546	0.25
5336	81237	89.113533562684	-0.375
5336	81542	89.315163278639	0.875
5336	82377	90.126489428885	0
5336	82696	90.426489428885	0.75
5336	83108	90.829935858932	0.625
5336	83453	91.140035858932	0.625
5336	84081	91.740035858932	0.25
5336	84928	92.459026116641	0.125
5336	85880	93.169126116641	0.125
5336	86430	93.669126116641	0.5
5336	86588	93.779226116641	0.875
5336	86941	94.079226116641	0.75
5336	87602	94.58763094937	0.375
5336	87883	94.79773094937	0.75
5336	88266	95.15839689172	0.875
5336	88342	95.19773094937	0.625
5336	88585	95.409680011479	0.625
5336	89229	96.009680011479	0.375
5336	89568	96.31840780635	0.75
5336	90128	96.827607911029	0.5
5336	90931	97.537461088451	0.125
5336	91014	97.603968161977	0.25
5336	91253	97.815449181823	0.875
5336	91483	98.024601964841	0.875
5336	91984	98.436009335915	0.5
5336	92480	98.836009335915	0.625
5336	92701	99.037086072744	0.875
5336	93227	99.440866995221	0.625
5336	93272	99.477033515856	0.625
5336	94549	100.55625570846	0.25
5336	95064	100.95625570846	0.625
5336	95696	101.463324664763	0.5
5336	96275	101.968977119381	0.5
5336	96775	102.366999260623	-0.625
5336	97207	102.70565494533	-0.375
5336	97559	102.979050623857	0.375
5336	98310	103.493176800346	0.25
5336	98559	103.693176800346	0.875
5336	98982	103.998891503922	0.75
5336	99522	104.408711188085	0.625
5336	99822	104.617139582125	0.875
5336	100358	105.036215691357	0.5
5336	100678	105.336215691357	0.75
5336	101277	105.838455058899	0.5
5336	101599	106.148555058899	0.625
5336	101956	106.448555058899	0.75
5336	102604	107.057707402346	0.375
5336	103006	107.369811271797	0.625
5336	103364	107.669811271797	0.75
5336	103694	107.977011720116	0.75
5336	104071	108.289713556218	0.625
5336	105236	109.289713556218	-0.375
5336	105697	109.705101263181	0.625
5336	105905	109.906685154554	0.875
5336	105925	109.91422222514	0.375
5336	105995	110.001278736697	0.875
5336	106302	110.316098860842	0.625
5336	106834	110.816098860842	0.5
5336	107446	111.319572833967	0.5
5336	107517	111.382347772819	0.5
5336	107647	111.494565951613	0.875
5336	108356	112.142327894361	0.55555555224419
5336	109066	112.678247072026	0.25
5336	109378	112.978247072026	0.75
5336	109697	113.279946956694	0.75
5336	110087	113.594941545862	0.75
5336	110390	113.805347097608	0.375
5336	110621	114.004404365265	0.625
5336	110748	114.096762055016	0.375
5336	111300	114.511151857058	0.5
5336	111940	115.015982644121	0.5
5336	112192	115.224206872045	0.875
5336	112214	115.245507697895	0.875
5336	112393	115.348245998778	0.875
5336	112515	115.435098089856	0.75
5336	112789	115.631121617962	0.75
5336	112822	115.657578527988	0.75
5336	113110	115.873962009027	0.625
5336	113499	116.173962009027	0.75
5336	113711	116.383999812436	0.875
5336	114257	116.886561076099	0.375
5336	114395	116.999621080432	0.875
5336	114702	117.299621080432	0.75
5336	114983	117.548570275587	0.875
5336	115656	118.15980460848	0.25
5336	116010	118.45980460848	0.75
5336	116752	119.165900269351	0.25
5336	116833	119.219459346213	0.625
5336	117230	119.571988698488	0.625
5336	117264	119.596473536986	0.625
5336	117999	120.181469503107	0.375
5336	119203	121.201521224641	-0.25
5336	119372	121.401521224641	0.875
5336	119819	121.794548276833	0.75
5336	119966	121.90313847319	0.375
5336	120103	122.01323847319	0.875
5336	121066	122.81323847319	0.125
5336	121307	123.02136762127	0.875
5336	121770	123.43692719821	0.5
5336	122131	123.73692719821	0.75
5336	122622	124.139243218523	0.625
5336	123009	124.449343218523	0.625
5336	123763	125.070175536976	0.625
5336	124688	125.886111604354	0
5336	124974	126.159988734644	0.25
5336	125123	126.270441530652	0.875
5336	125423	126.579302710443	0.75
5336	125914	126.987530170117	0.625
5336	126620	127.497630170117	0.375
5336	127339	128.097630170117	0.25
5336	127614	128.302974200077	0.75
5336	127822	128.538121974925	0.625
5336	128329	128.986377137804	0.75
5336	128474	129.140717758539	0.375
5336	128730	129.303767554923	-0.25
5336	130220	130.522271274926	-0.5
5336	131165	131.222271274926	0.25
5336	131433	131.434189984157	0.75
5336	132197	132.073686231362	0.75
5336	132851	132.673686231362	0.375
5336	133046	132.878975308217	0.875
5336	133653	133.486896064973	0.75
5336	134207	133.990230199107	0.5
5336	134616	134.294033932729	0.75
5336	135223	134.811994081442	0.375
5336	135451	135.018414476442	0.875
5336	135748	135.330526976233	0.75
5336	136654	136.140626976233	0
5336	137260	136.740626976233	0.375
5336	137263	136.741361478743	0.75
5337	192	20.31	0.3
5337	572	20.927784916515	0
5337	1545	21.927784916515	1
5337	1830	22.141967116036	0.2
5337	1856	22.166588522865	0.2
5337	2570	22.682978249221	0.5
5337	3630	23.682978249221	1
5337	4526	24.291992089295	0.6
5337	4579	24.318841495579	0.2
5337	4848	24.511224622228	0.2
5337	5261	24.821324622228	0.3
5337	5669	25.221324622228	0.4
5337	6022	25.521540074914	0.4
5337	6181	25.631640074914	0.1
5337	6837	26.231640074914	0.6
5337	8207	27.341027694833	1.1
5337	8889	27.942556949362	0.6
5337	9205	28.151353964429	0.2
5337	9211	28.155456393706	0.4
5337	9447	28.338136439779	0.3
5337	9640	28.537451943497	1.5
5337	9756	28.655409347862	0.1
5337	9947	28.855409347862	0.2
5337	10313	29.164433355699	0.3
5337	10703	29.486352205648	0.6
5337	11018	29.670098964478	0.5
5337	11085	29.717539204078	0.5
5337	11176	29.786452205648	0.9
5337	11512	29.996712301057	0.2
5337	11951	30.296712301057	0.3
5337	13077	31.296860857454	1
5337	15007	32.913023432257	1.6
5337	15799	33.516394101131	0.6
5337	16230	33.875569155357	0.4
5337	16638	34.19235783068	0.3
5337	16888	34.39235783068	0.2
5337	17280	34.792679263271	0.4
5337	17503	35.011712989327	0.2
5337	17881	35.321812989327	0.3
5337	18654	35.921812989327	0.6
5337	19025	36.240275581074	0.3
5337	19630	36.869161546769	0.6
5337	20537	37.646728401283	0.3
5337	20974	37.95843137418	0.3
5337	21397	38.35843137418	0.4
5337	21746	38.660590053166	0.3
5337	21778	38.694098727245	0.5
5337	22001	38.900762285764	0.2
5337	22569	39.389048661751	0.7
5337	23018	39.816263788231	0.9
5337	24060	40.736189205851	0.9
5337	24322	41.036189205851	0.3
5337	25280	41.94226811292	0.9
5337	25826	42.345541716864	0.4
5337	26027	42.549740995935	0.2
5337	26414	42.853851853891	0.3
5337	26996	43.37263313269	0.5
5337	27407	43.77263313269	0.4
5337	28021	44.375632144543	0.6
5337	28696	45.08425220566	0.7
5337	28887	45.251027987177	0.6
5337	29114	45.458505957342	0.2
5337	29169	45.528688395935	0.2
5337	29604	45.828988508146	0.3
5337	29613	45.835620776897	0.3
5337	29743	45.888476121636	0.8
5337	30427	46.408808260154	0.5
5337	30850	46.808808260154	0.4
5337	31186	47.115007663272	0.3
5337	31688	47.529540761116	0.4
5337	31865	47.670302632239	0.7
5337	32412	48.104786717993	0.4
5337	33007	48.604786717993	0.5
5337	33383	48.91014066916	0.3
5337	33749	49.185949048855	0.3
5337	34097	49.486131586053	0.3
5337	34416	49.720382853057	0.8
5337	36421	51.530482853057	1.8
5337	37892	52.833514983188	1.3
5337	38435	53.250882460958	0.4
5337	39121	53.750882460958	0.5
5337	39432	53.953810563179	0.2
5337	39676	54.163401143374	0.2
5337	40150	54.480038085386	0.3
5337	41010	55.180038085386	0.7
5337	41246	55.39349870565	0.2
5337	41302	55.443922501705	0.2
5337	41553	55.703706184639	0.3
5337	41608	55.749547135746	0.3
5337	41864	55.961172157933	0.2
5337	42323	56.361172157933	0.4
5337	42805	56.767344849889	0.4
5337	43137	57.071353875053	0.3
5337	43146	57.072883680577	0.4
5337	43793	57.59470173657	0.5
5337	44540	58.39470173657	0.8
5337	45206	58.90480173657	0.5
5337	45590	59.20480173657	0.3
5337	46474	59.912764442877	0.7
5337	46989	60.422864442877	0.5
5337	47625	61.022864442877	0.6
5337	48744	61.933611447864	0.9
5337	48817	61.97411793289	0.6
5337	49330	62.304320754486	0.3
5337	50205	62.91842188415	0.3
5337	50805	63.41842188415	0.5
5337	51096	63.628724761535	0.2
5337	51267	63.738824761535	0.1
5337	51988	64.338824761535	0.6
5337	52013	64.348924761535	0
5337	52861	64.948924761535	0.6
5337	53127	65.154897624891	0.2
5337	53506	65.527575946338	0.4
5337	53699	65.664068609952	0.5
5337	53897	65.831585797995	0.3
5337	54186	66.041501009207	0.2
5337	54362	66.180827707565	0.5
5337	54561	66.299192231812	0.1
5337	55213	66.899192231812	0.6
5337	55508	67.208947884808	0.3
5337	56121	67.711668852192	0.5
5337	56346	67.828524537309	0.1
5337	56957	68.275114029429	0.3
5337	57022	68.349955440386	0.5
5337	57612	68.860055440386	0.5
5337	58198	69.367699986271	0.5
5337	58973	69.979361748723	0.6
5337	59650	70.587631994604	0.6
5337	59746	70.690454459539	0.6
5337	60119	71.001303722904	0.3
5337	60974	71.72890062737	0.2
5337	62462	72.92890062737	1.2
5337	62938	73.334285575551	0.4
5337	63137	73.511255701357	0.5
5337	63732	74.013568464427	0.5
5337	63957	74.14697231351	0.8
5337	64195	74.348955947305	0.2
5337	64562	74.654141697718	0.3
5337	64770	74.81946744537	0.8
5337	65513	75.438890195402	0.6
5337	65918	75.854916120141	0.2
5337	66088	76.038890195402	0.6
5337	66523	76.448990195402	0.4
5337	66691	76.648990195402	0.2
5337	67196	77.050261229056	0.4
5337	67378	77.253439417796	0.2
5337	68223	78.066916754234	0.8
5337	68558	78.368936276272	0.3
5337	69198	78.979036276272	0.6
5337	70258	79.89634854214	0.7
5337	70804	80.285325800363	0.2
5337	72445	81.498503073585	1.2
5337	73529	82.498503073585	1
5337	74084	82.93515589102	0.5
5337	74176	82.998574592597	0.5
5337	74347	83.13842283366	0.2
5337	74754	83.452354715566	0.3
5337	74991	83.656776022041	0.2
5337	76009	84.640564021615	0.9
5337	76350	84.962816769362	1.3
5337	76773	85.349680999868	0.7
5337	77304	85.773945018268	0.4
5337	77506	85.981229249481	0.2
5337	78436	86.808879930126	0.3
5337	78979	87.308879930126	0.5
5337	79808	88.012047201546	0.7
5337	81237	89.113533562684	1.1
5337	81542	89.315163278639	0.2