version 2
run Stability-137-20130526-18:56:24-1898
attr configname Stability
attr datetime 20130526-18:56:24
attr experiment Stability
attr inifile omnetpp.ini
attr iterationvars $0=1e-7
attr iterationvars2 "$0=1e-7, $repetition=7"
attr measurement $0=1e-7
attr network Network
attr processid 1898
attr repetition 7
attr replication #7
attr resultdir results
attr runnumber 137
attr seedset 137

vector 13385  Network.churner  inGoingSizeSig:vector  ETV
vector 13292  Network.dyn_peer[1]  lookupHopsSig:vector  ETV
vector 13293  Network.dyn_peer[1]  lookupStabilitySig:vector  ETV
vector 13294  Network.dyn_peer[1]  lookupTimeSig:vector  ETV
vector 13307  Network.dyn_peer[6]  lookupHopsSig:vector  ETV
vector 13308  Network.dyn_peer[6]  lookupStabilitySig:vector  ETV
vector 13309  Network.dyn_peer[6]  lookupTimeSig:vector  ETV
vector 13313  Network.dyn_peer[8]  lookupHopsSig:vector  ETV
vector 13314  Network.dyn_peer[8]  lookupStabilitySig:vector  ETV
vector 13315  Network.dyn_peer[8]  lookupTimeSig:vector  ETV
vector 13331  Network.dyn_peer[14]  lookupHopsSig:vector  ETV
vector 13332  Network.dyn_peer[14]  lookupStabilitySig:vector  ETV
vector 13333  Network.dyn_peer[14]  lookupTimeSig:vector  ETV
vector 13289  Network.dyn_peer[0]  lookupHopsSig:vector  ETV
vector 13290  Network.dyn_peer[0]  lookupStabilitySig:vector  ETV
vector 13291  Network.dyn_peer[0]  lookupTimeSig:vector  ETV
vector 13295  Network.dyn_peer[2]  lookupHopsSig:vector  ETV
vector 13296  Network.dyn_peer[2]  lookupStabilitySig:vector  ETV
vector 13297  Network.dyn_peer[2]  lookupTimeSig:vector  ETV
vector 13298  Network.dyn_peer[3]  lookupHopsSig:vector  ETV
vector 13299  Network.dyn_peer[3]  lookupStabilitySig:vector  ETV
vector 13300  Network.dyn_peer[3]  lookupTimeSig:vector  ETV
vector 13301  Network.dyn_peer[4]  lookupHopsSig:vector  ETV
vector 13302  Network.dyn_peer[4]  lookupStabilitySig:vector  ETV
vector 13303  Network.dyn_peer[4]  lookupTimeSig:vector  ETV
vector 13304  Network.dyn_peer[5]  lookupHopsSig:vector  ETV
vector 13305  Network.dyn_peer[5]  lookupStabilitySig:vector  ETV
vector 13306  Network.dyn_peer[5]  lookupTimeSig:vector  ETV
vector 13322  Network.dyn_peer[11]  lookupHopsSig:vector  ETV
vector 13323  Network.dyn_peer[11]  lookupStabilitySig:vector  ETV
vector 13324  Network.dyn_peer[11]  lookupTimeSig:vector  ETV
vector 13328  Network.dyn_peer[13]  lookupHopsSig:vector  ETV
vector 13329  Network.dyn_peer[13]  lookupStabilitySig:vector  ETV
vector 13330  Network.dyn_peer[13]  lookupTimeSig:vector  ETV
vector 13340  Network.dyn_peer[17]  lookupHopsSig:vector  ETV
vector 13341  Network.dyn_peer[17]  lookupStabilitySig:vector  ETV
vector 13342  Network.dyn_peer[17]  lookupTimeSig:vector  ETV
vector 13346  Network.dyn_peer[19]  lookupHopsSig:vector  ETV
vector 13347  Network.dyn_peer[19]  lookupStabilitySig:vector  ETV
vector 13348  Network.dyn_peer[19]  lookupTimeSig:vector  ETV
vector 13352  Network.dyn_peer[21]  lookupHopsSig:vector  ETV
vector 13353  Network.dyn_peer[21]  lookupStabilitySig:vector  ETV
vector 13354  Network.dyn_peer[21]  lookupTimeSig:vector  ETV
vector 13376  Network.dyn_peer[29]  lookupHopsSig:vector  ETV
vector 13377  Network.dyn_peer[29]  lookupStabilitySig:vector  ETV
vector 13378  Network.dyn_peer[29]  lookupTimeSig:vector  ETV
vector 13316  Network.dyn_peer[9]  lookupHopsSig:vector  ETV
vector 13317  Network.dyn_peer[9]  lookupStabilitySig:vector  ETV
vector 13318  Network.dyn_peer[9]  lookupTimeSig:vector  ETV
vector 13325  Network.dyn_peer[12]  lookupHopsSig:vector  ETV
vector 13326  Network.dyn_peer[12]  lookupStabilitySig:vector  ETV
vector 13327  Network.dyn_peer[12]  lookupTimeSig:vector  ETV
vector 13334  Network.dyn_peer[15]  lookupHopsSig:vector  ETV
vector 13335  Network.dyn_peer[15]  lookupStabilitySig:vector  ETV
vector 13336  Network.dyn_peer[15]  lookupTimeSig:vector  ETV
vector 13337  Network.dyn_peer[16]  lookupHopsSig:vector  ETV
vector 13338  Network.dyn_peer[16]  lookupStabilitySig:vector  ETV
vector 13339  Network.dyn_peer[16]  lookupTimeSig:vector  ETV
vector 13343  Network.dyn_peer[18]  lookupHopsSig:vector  ETV
vector 13344  Network.dyn_peer[18]  lookupStabilitySig:vector  ETV
vector 13345  Network.dyn_peer[18]  lookupTimeSig:vector  ETV
vector 13358  Network.dyn_peer[23]  lookupHopsSig:vector  ETV
vector 13359  Network.dyn_peer[23]  lookupStabilitySig:vector  ETV
vector 13360  Network.dyn_peer[23]  lookupTimeSig:vector  ETV
vector 13361  Network.dyn_peer[24]  lookupHopsSig:vector  ETV
vector 13362  Network.dyn_peer[24]  lookupStabilitySig:vector  ETV
vector 13363  Network.dyn_peer[24]  lookupTimeSig:vector  ETV
vector 13364  Network.dyn_peer[25]  lookupHopsSig:vector  ETV
vector 13365  Network.dyn_peer[25]  lookupStabilitySig:vector  ETV
vector 13366  Network.dyn_peer[25]  lookupTimeSig:vector  ETV
vector 13367  Network.dyn_peer[26]  lookupHopsSig:vector  ETV
vector 13368  Network.dyn_peer[26]  lookupStabilitySig:vector  ETV
vector 13369  Network.dyn_peer[26]  lookupTimeSig:vector  ETV
vector 13370  Network.dyn_peer[27]  lookupHopsSig:vector  ETV
vector 13371  Network.dyn_peer[27]  lookupStabilitySig:vector  ETV
vector 13372  Network.dyn_peer[27]  lookupTimeSig:vector  ETV
vector 13379  Network.dyn_peer[30]  lookupHopsSig:vector  ETV
vector 13380  Network.dyn_peer[30]  lookupStabilitySig:vector  ETV
vector 13381  Network.dyn_peer[30]  lookupTimeSig:vector  ETV
vector 13310  Network.dyn_peer[7]  lookupHopsSig:vector  ETV
vector 13311  Network.dyn_peer[7]  lookupStabilitySig:vector  ETV
vector 13312  Network.dyn_peer[7]  lookupTimeSig:vector  ETV
vector 13319  Network.dyn_peer[10]  lookupHopsSig:vector  ETV
vector 13320  Network.dyn_peer[10]  lookupStabilitySig:vector  ETV
vector 13321  Network.dyn_peer[10]  lookupTimeSig:vector  ETV
vector 13349  Network.dyn_peer[20]  lookupHopsSig:vector  ETV
vector 13350  Network.dyn_peer[20]  lookupStabilitySig:vector  ETV
vector 13351  Network.dyn_peer[20]  lookupTimeSig:vector  ETV
vector 13355  Network.dyn_peer[22]  lookupHopsSig:vector  ETV
vector 13356  Network.dyn_peer[22]  lookupStabilitySig:vector  ETV
vector 13357  Network.dyn_peer[22]  lookupTimeSig:vector  ETV
vector 13373  Network.dyn_peer[28]  lookupHopsSig:vector  ETV
vector 13374  Network.dyn_peer[28]  lookupStabilitySig:vector  ETV
vector 13375  Network.dyn_peer[28]  lookupTimeSig:vector  ETV
vector 13382  Network.dyn_peer[31]  lookupHopsSig:vector  ETV
vector 13383  Network.dyn_peer[31]  lookupStabilitySig:vector  ETV
vector 13384  Network.dyn_peer[31]  lookupTimeSig:vector  ETV
13289	142	20.1000000001	1
13289	468	20.503940483608	3
13289	797	20.91107712055	1
13289	2432	22.321086648524	4
13289	3463	23.120795020697	2
13289	3616	23.221086648524	10
13289	4034	23.521585655008	2
13289	4062	23.525467264916	3
13289	4089	23.530701079323	2
13289	4508	23.833094942274	2
13289	4514	23.834966293769	2
13289	5027	24.237324633211	5
13289	5663	24.737324633211	4
13289	6051	25.037424633311	3
13289	6518	25.437424633311	3
13289	7265	26.047272550462	6
13289	7361	26.13507212093	2
13289	7578	26.337363006494	2
13289	7732	26.537363006494	1
13289	8143	26.945875313457	3
13289	8567	27.348154255976	3
13289	8578	27.349369425682	7
13289	9325	27.949469425782	7
13289	9758	28.349469425782	3
13289	10265	28.756290319726	3
13289	11095	29.561330569436	7
13289	11393	29.780129727375	1
13289	11435	29.788641786417	0
13289	12377	30.488641786417	8
13289	12394	30.490627945938	2
13289	12591	30.599379587084	1
13289	13095	30.999379587084	3
13289	13496	31.306242231199	2
13289	14158	31.907690362838	6
13289	14485	32.213729286757	4
13289	14886	32.619724723107	3
13289	15340	33.01153717557	11
13289	15388	33.020613078982	0
13289	15914	33.420613078982	4
13289	16225	33.62621924169	3
13289	17481	34.72621924169	11
13289	18034	35.22631924179	6
13289	18607	35.72631924179	4
13289	19287	36.236030601607	1
13289	20262	37.045140454162	8
13289	20388	37.147572197143	4
13289	21083	37.750821333175	6
13289	21432	38.050821333175	2
13289	22064	38.655929295101	1
13289	22399	38.956217902304	9
13289	23181	39.556317902404	6
13289	23812	40.056317902404	4
13289	24043	40.264899395858	1
13289	24329	40.470089604854	1
13289	25175	41.193283088895	5
13289	25240	41.256469007759	8
13289	25244	41.256569007759	8
13289	25486	41.457726604326	1
13289	25495	41.466180103298	1
13289	25510	41.466675659948	0
13289	26247	42.166675659948	7
13289	27391	42.966775660048	8
13289	27682	43.166775660048	1
13289	27838	43.314847330588	1
13289	29235	44.514947330688	12
13289	29853	45.014947330688	4
13289	30183	45.324693558778	2
13289	30798	45.834539479018	4
13289	31049	46.045746879035	1
13289	31402	46.266840958331	2
13289	31598	46.447421185921	5
13289	31763	46.551677133161	0
13289	31910	46.667568542369	3
13289	31933	46.669961948055	0
13289	32346	46.969961948055	2
13289	33080	47.570061948155	6
13289	33672	47.970061948155	5
13289	34190	48.373248982338	3
13289	34665	48.780065372001	3
13289	34941	49.05802997233	3
13289	35276	49.362614603288	2
13289	35302	49.384484220558	5
13289	36957	50.791135681598	18
13289	37164	50.991135681598	1
13289	38020	51.700371414174	6
13289	38449	52.041393251164	5
13289	38692	52.308390125967	5
13289	38736	52.345507751655	2
13289	39302	52.845807298531	5
13289	39790	53.345807298531	4
13289	40218	53.645907298631	3
13289	40452	53.845907298631	1
13289	41280	54.54742394097	6
13289	42185	55.451906667939	8
13289	42508	55.755130456812	2
13289	42515	55.757772280294	2
13289	42727	55.940108045201	9
13289	42885	56.058296074522	2
13289	42893	56.06571670218	2
13289	42997	56.165666030318	2
13289	43547	56.667176583913	5
13289	43579	56.671309371019	5
13289	43581	56.672072945973	4
13289	44205	57.174162512266	5
13289	44705	57.574162512266	3
13289	45633	58.275864553854	8
13289	45831	58.476413470985	1
13289	46074	58.69876266539	1
13289	46262	58.899946368277	1
13289	46392	59.0631922049	1
13289	46909	59.474817046361	3
13289	47146	59.674917046461	2
13289	48843	61.174917046461	16
13289	49044	61.363247463817	3
13289	49331	61.564842247489	2
13289	49710	61.864842247489	2
13289	49914	62.074433511601	1
13289	50497	62.594175297277	4
13289	50987	62.982590372949	3
13289	51523	63.390071349979	4
13289	52182	63.993106533129	6
13289	52601	64.408397612527	3
13289	52976	64.709978155837	3
13289	54053	65.509978155837	8
13289	55560	66.91562063953	6
13289	55701	67.077267607156	11
13289	56102	67.480370756773	3
13289	56246	67.618156665275	6
13289	56425	67.789429292975	2
13289	56608	67.918732054913	2
13289	57323	68.527816694974	7
13289	58259	69.427816694974	9
13289	58762	69.828162984099	3
13289	59430	70.349385468144	1
13289	59526	70.430301063482	5
13289	59854	70.731384805354	3
13289	60051	70.931384805354	1
13289	60793	71.637001969191	6
13289	61351	72.041282555035	4
13289	61370	72.051864911443	4
13289	61667	72.257966803126	5
13289	61775	72.353658082929	2
13289	62150	72.64549885808	5
13289	62629	73.052827702734	4
13289	63246	73.552827702734	4
13289	63679	73.857220657136	3
13289	64481	74.467969869916	1
13289	64737	74.663847200529	8
13289	64923	74.776377545525	2
13289	65125	74.964689149328	2
13289	65139	74.975276365846	14
13289	65453	75.280543815129	4
13289	65679	75.490320631222	2
13289	65977	75.790320631222	2
13289	66527	76.23026494503	2
13289	67591	77.039913306003	8
13289	68229	77.539913306003	5
13289	68499	77.757934576354	1
13289	68763	77.962155909318	2
13289	70220	79.223723379227	1
13289	70868	79.760325764012	2
13289	71541	80.260325764012	4
13289	72449	80.967784593083	6
13289	73107	81.471153897678	4
13289	73116	81.472260948758	4
13289	73889	82.075090401375	7
13289	74274	82.375090401375	2
13289	74893	82.981075045207	5
13289	75268	83.288943538066	3
13289	75354	83.375977117295	2
13289	75633	83.601161554091	2
13289	75735	83.681395001669	2
13289	75885	83.805554944703	1
13289	76497	84.306097162314	5
13289	76822	84.606097162314	2
13289	77327	85.012118608131	4
13289	78410	85.89204630046	6
13289	78429	85.901472667945	6
13289	78520	85.982745018279	3
13289	78795	86.186535484836	2
13289	79451	86.786535484836	6
13289	79820	87.089627386976	6
13289	79866	87.101329043332	5
13289	80038	87.294913783216	5
13289	80273	87.49113525289	3
13289	80379	87.59784079711	2
13289	80898	88.002236329411	8
13289	80919	88.005825142271	3
13289	81235	88.261958077302	7
13289	81313	88.30527121228	2
13289	81320	88.311662494896	2
13289	81593	88.519335405788	2
13289	82258	89.119335405788	5
13289	82272	89.119435405888	0
13289	83815	90.219435405888	11
13289	84373	90.650839727666	4
13289	84625	90.856785222217	1
13289	85053	91.261193175562	3
13289	85491	91.643615509737	8
13289	85558	91.66193609011	4
13289	86347	92.263933125751	7
13289	87418	93.090185488532	7
13289	87654	93.290185488532	1
13289	87887	93.497259920693	2
13289	88151	93.749029035274	3
13289	88725	94.162689216801	3
13289	89076	94.471090323084	2
13289	89758	94.971190323184	5
13289	90268	95.371190323184	3
13289	91172	96.272331227359	9
13289	92039	97.025827354415	5
13289	92314	97.232934587363	1
13289	92546	97.472570411066	14
13289	92980	97.775823064352	4
13289	93464	98.175823064352	3
13289	94159	98.675923064452	5
13289	96442	100.575923064452	19
13289	97267	101.48049588616	8
13289	97538	101.68059588626	3
13289	98599	102.68059588626	10
13289	98794	102.839769667091	6
13289	98933	102.94003046466	0
13289	99104	103.094129564214	3
13289	99126	103.097794602807	0
13289	100021	103.887795617497	3
13289	100347	104.187795617497	2
13289	100606	104.457671868237	2
13289	100853	104.690553088828	4
13289	101802	105.500243369126	8
13289	102114	105.800243369126	2
13289	102473	106.110280072352	3
13289	102609	106.219588811681	1
13289	102975	106.519588811681	2
13289	103377	106.923630345102	3
13289	103799	107.223739988246	3
13289	104387	107.723739988246	4
13289	105212	108.424296599969	8
13289	105800	108.924296599969	4
13289	106385	109.428607623807	4
13289	106598	109.599003894946	3
13289	106715	109.736531785183	2
13289	106896	109.890141879636	2
13289	106945	109.939996295663	1
13289	107354	110.348911141001	4
13289	107555	110.548911141001	1
13289	107872	110.851328022638	2
13289	108456	111.367936756043	4
13289	108797	111.655002506475	4
13289	109037	111.857154194821	1
13289	109449	112.157525328566	4
13289	109897	112.557525328566	3
13289	110177	112.772548507465	1
13289	110214	112.81148946965	1
13289	111005	113.420143441095	6
13289	111505	113.920143441095	4
13289	112224	114.529921704621	6
13289	112876	115.036588740476	5
13289	112960	115.129134232523	9
13289	113016	115.218252207087	5
13289	113285	115.423662041068	2
13289	113994	116.123662041068	6
13289	114260	116.331706353566	1
13289	114549	116.638169860137	2
13289	114735	116.801790802186	2
13289	115284	117.245325823382	6
13289	115398	117.309995568583	5
13289	115708	117.550114642574	2
13289	115778	117.596958551695	2
13289	116296	118.003560918114	4
13289	116755	118.403560918114	3
13289	117752	119.203660918214	8
13289	118508	119.903736394059	7
13289	119323	120.620993162195	6
13289	119588	120.875696962261	4
13289	119992	121.275796962361	4
13289	120451	121.675796962361	3
13289	121070	122.17767675168	4
13289	121085	122.192416940436	4
13289	121826	122.88643133544	6
13289	122186	123.199540369471	2
13289	122246	123.247856924989	7
13289	123190	123.94989167556	7
13289	124071	124.74989167556	7
13289	125816	126.252824058521	15
13289	126443	126.858839438659	5
13289	126674	127.103835488995	6
13289	127132	127.47057478167	5
13289	128078	128.17067478177	7
13289	128904	128.87067478177	6
13289	129940	129.673594181389	8
13289	130181	129.86236802332	5
13289	130500	130.065092242507	2
13289	131026	130.465092242507	3
13289	131290	130.672433412852	1
13289	131417	130.779712931971	1
13289	131915	131.179712931971	4
13289	132488	131.62729198106	5
13289	132777	131.889553029451	6
13289	133981	132.99113560985	12
13289	134435	133.39113560985	3
13289	135226	134.004596433991	5
13289	135458	134.208701090519	1
13289	135728	134.41707637557	2
13289	136595	135.224758376923	9
13289	137096	135.638254636975	3
13289	137134	135.701126565335	3
13289	137561	136.028364561015	4
13289	137662	136.104017281888	4
13289	137668	136.107240665233	4
13289	137838	136.244533171255	5
13289	138066	136.411752237227	2
13289	138761	136.920559237437	6
13289	140096	138.020559237437	12
13289	141157	139.028216438824	10
13289	141400	139.32886020204	2
13289	141762	139.934553275533	6
13289	141856	140.160863980937	1
13290	142	20.1000000001	0.875
13290	468	20.503940483608	0.625
13290	797	20.91107712055	0.875
13290	2432	22.321086648524	0.5
13290	3463	23.120795020697	0.75
13290	3616	23.221086648524	-0.25
13290	4034	23.521585655008	0.75
13290	4062	23.525467264916	0.625
13290	4089	23.530701079323	0.75
13290	4508	23.833094942274	0.75
13290	4514	23.834966293769	0.75
13290	5027	24.237324633211	0.44444441795349
13290	5663	24.737324633211	0.5
13290	6051	25.037424633311	0.625
13290	6518	25.437424633311	0.625
13290	7265	26.047272550462	0.25
13290	7361	26.13507212093	0.75
13290	7578	26.337363006494	0.75
13290	7732	26.537363006494	0.875
13290	8143	26.945875313457	0.625
13290	8567	27.348154255976	0.625
13290	8578	27.349369425682	0.125
13290	9325	27.949469425782	0.125
13290	9758	28.349469425782	0.625
13290	10265	28.756290319726	0.625
13290	11095	29.561330569436	0.125
13290	11393	29.780129727375	0.875
13290	11435	29.788641786417	1
13290	12377	30.488641786417	0
13290	12394	30.490627945938	0.75
13290	12591	30.599379587084	0.875
13290	13095	30.999379587084	0.625
13290	13496	31.306242231199	0.75
13290	14158	31.907690362838	0.25
13290	14485	32.213729286757	0.5
13290	14886	32.619724723107	0.625
13290	15340	33.01153717557	-0.375
13290	15388	33.020613078982	1
13290	15914	33.420613078982	0.5
13290	16225	33.62621924169	0.625
13290	17481	34.72621924169	-0.375
13290	18034	35.22631924179	0.25
13290	18607	35.72631924179	0.5
13290	19287	36.236030601607	0.875
13290	20262	37.045140454162	0
13290	20388	37.147572197143	0.5
13290	21083	37.750821333175	0.25
13290	21432	38.050821333175	0.75
13290	22064	38.655929295101	0.875
13290	22399	38.956217902304	-0.125
13290	23181	39.556317902404	0.25
13290	23812	40.056317902404	0.5
13290	24043	40.264899395858	0.875
13290	24329	40.470089604854	0.875
13290	25175	41.193283088895	0.375
13290	25240	41.256469007759	0
13290	25244	41.256569007759	0
13290	25486	41.457726604326	0.875
13290	25495	41.466180103298	0.875
13290	25510	41.466675659948	1
13290	26247	42.166675659948	0.125
13290	27391	42.966775660048	0
13290	27682	43.166775660048	0.875
13290	27838	43.314847330588	0.875
13290	29235	44.514947330688	-0.5
13290	29853	45.014947330688	0.5
13290	30183	45.324693558778	0.75
13290	30798	45.834539479018	0.5
13290	31049	46.045746879035	0.875
13290	31402	46.266840958331	0.75
13290	31598	46.447421185921	0.375
13290	31763	46.551677133161	1
13290	31910	46.667568542369	0.625
13290	31933	46.669961948055	1
13290	32346	46.969961948055	0.75
13290	33080	47.570061948155	0.25
13290	33672	47.970061948155	0.375
13290	34190	48.373248982338	0.625
13290	34665	48.780065372001	0.625
13290	34941	49.05802997233	0.625
13290	35276	49.362614603288	0.75
13290	35302	49.384484220558	0.375
13290	36957	50.791135681598	-1.25
13290	37164	50.991135681598	0.875
13290	38020	51.700371414174	0.25
13290	38449	52.041393251164	0.375
13290	38692	52.308390125967	0.375
13290	38736	52.345507751655	0.75
13290	39302	52.845807298531	0.375
13290	39790	53.345807298531	0.5
13290	40218	53.645907298631	0.625
13290	40452	53.845907298631	0.875
13290	41280	54.54742394097	0.25
13290	42185	55.451906667939	0
13290	42508	55.755130456812	0.75
13290	42515	55.757772280294	0.75
13290	42727	55.940108045201	-0.125
13290	42885	56.058296074522	0.75
13290	42893	56.06571670218	0.75
13290	42997	56.165666030318	0.75
13290	43547	56.667176583913	0.375
13290	43579	56.671309371019	0.375
13290	43581	56.672072945973	0.5
13290	44205	57.174162512266	0.375
13290	44705	57.574162512266	0.625
13290	45633	58.275864553854	0
13290	45831	58.476413470985	0.875
13290	46074	58.69876266539	0.875
13290	46262	58.899946368277	0.875
13290	46392	59.0631922049	0.875
13290	46909	59.474817046361	0.625
13290	47146	59.674917046461	0.75
13290	48843	61.174917046461	-1
13290	49044	61.363247463817	0.625
13290	49331	61.564842247489	0.75
13290	49710	61.864842247489	0.75
13290	49914	62.074433511601	0.875
13290	50497	62.594175297277	0.5
13290	50987	62.982590372949	0.625
13290	51523	63.390071349979	0.5
13290	52182	63.993106533129	0.25
13290	52601	64.408397612527	0.625
13290	52976	64.709978155837	0.625
13290	54053	65.509978155837	0
13290	55560	66.91562063953	0.25
13290	55701	67.077267607156	-0.375
13290	56102	67.480370756773	0.625
13290	56246	67.618156665275	0.25
13290	56425	67.789429292975	0.75
13290	56608	67.918732054913	0.75
13290	57323	68.527816694974	0.125
13290	58259	69.427816694974	-0.125
13290	58762	69.828162984099	0.625
13290	59430	70.349385468144	0.875
13290	59526	70.430301063482	0.375
13290	59854	70.731384805354	0.625
13290	60051	70.931384805354	0.875
13290	60793	71.637001969191	0.25
13290	61351	72.041282555035	0.5
13290	61370	72.051864911443	0.5
13290	61667	72.257966803126	0.375
13290	61775	72.353658082929	0.75
13290	62150	72.64549885808	0.375
13290	62629	73.052827702734	0.5
13290	63246	73.552827702734	0.5
13290	63679	73.857220657136	0.625
13290	64481	74.467969869916	0.875
13290	64737	74.663847200529	0
13290	64923	74.776377545525	0.75
13290	65125	74.964689149328	0.75
13290	65139	74.975276365846	-0.75
13290	65453	75.280543815129	0.5
13290	65679	75.490320631222	0.75
13290	65977	75.790320631222	0.75
13290	66527	76.23026494503	0.75
13290	67591	77.039913306003	0
13290	68229	77.539913306003	0.375
13290	68499	77.757934576354	0.875
13290	68763	77.962155909318	0.75
13290	70220	79.223723379227	0.875
13290	70868	79.760325764012	0.75
13290	71541	80.260325764012	0.5
13290	72449	80.967784593083	0.25
13290	73107	81.471153897678	0.5
13290	73116	81.472260948758	0.5
13290	73889	82.075090401375	0.125
13290	74274	82.375090401375	0.75
13290	74893	82.981075045207	0.375
13290	75268	83.288943538066	0.625
13290	75354	83.375977117295	0.75
13290	75633	83.601161554091	0.75
13290	75735	83.681395001669	0.75
13290	75885	83.805554944703	0.875
13290	76497	84.306097162314	0.375
13290	76822	84.606097162314	0.75
13290	77327	85.012118608131	0.5
13290	78410	85.89204630046	0.25
13290	78429	85.901472667945	0.25
13290	78520	85.982745018279	0.625
13290	78795	86.186535484836	0.75
13290	79451	86.786535484836	0.25
13290	79820	87.089627386976	0.25
13290	79866	87.101329043332	0.375
13290	80038	87.294913783216	0.375
13290	80273	87.49113525289	0.625
13290	80379	87.59784079711	0.75
13290	80898	88.002236329411	0
13290	80919	88.005825142271	0.625
13290	81235	88.261958077302	0.125
13290	81313	88.30527121228	0.75
13290	81320	88.311662494896	0.75
13290	81593	88.519335405788	0.75
13290	82258	89.119335405788	0.375
13290	82272	89.119435405888	1
13290	83815	90.219435405888	-0.375
13290	84373	90.650839727666	0.5
13290	84625	90.856785222217	0.875
13290	85053	91.261193175562	0.625
13290	85491	91.643615509737	0
13290	85558	91.66193609011	0.5
13290	86347	92.263933125751	0.125
13290	87418	93.090185488532	0.125
13290	87654	93.290185488532	0.875
13290	87887	93.497259920693	0.75
13290	88151	93.749029035274	0.625
13290	88725	94.162689216801	0.625
13290	89076	94.471090323084	0.75
13290	89758	94.971190323184	0.375
13290	90268	95.371190323184	0.625
13290	91172	96.272331227359	-0.125
13290	92039	97.025827354415	0.375
13290	92314	97.232934587363	0.875
13290	92546	97.472570411066	-0.75
13290	92980	97.775823064352	0.5
13290	93464	98.175823064352	0.625
13290	94159	98.675923064452	0.375
13290	96442	100.575923064452	-1.375
13290	97267	101.48049588616	0
13290	97538	101.68059588626	0.625
13290	98599	102.68059588626	-0.25
13290	98794	102.839769667091	0.25
13290	98933	102.94003046466	1
13290	99104	103.094129564214	0.625
13290	99126	103.097794602807	1
13290	100021	103.887795617497	0.625
13290	100347	104.187795617497	0.75
13290	100606	104.457671868237	0.75
13290	100853	104.690553088828	0.5
13290	101802	105.500243369126	0
13290	102114	105.800243369126	0.75
13290	102473	106.110280072352	0.625
13290	102609	106.219588811681	0.875
13290	102975	106.519588811681	0.75
13290	103377	106.923630345102	0.625
13290	103799	107.223739988246	0.625
13290	104387	107.723739988246	0.5
13290	105212	108.424296599969	0
13290	105800	108.924296599969	0.5
13290	106385	109.428607623807	0.5
13290	106598	109.599003894946	0.625
13290	106715	109.736531785183	0.75
13290	106896	109.890141879636	0.75
13290	106945	109.939996295663	0.875
13290	107354	110.348911141001	0.5
13290	107555	110.548911141001	0.875
13290	107872	110.851328022638	0.75
13290	108456	111.367936756043	0.5
13290	108797	111.655002506475	0.5
13290	109037	111.857154194821	0.875
13290	109449	112.157525328566	0.5
13290	109897	112.557525328566	0.625
13290	110177	112.772548507465	0.875
13290	110214	112.81148946965	0.875
13290	111005	113.420143441095	0.25
13290	111505	113.920143441095	0.5
13290	112224	114.529921704621	0.25
13290	112876	115.036588740476	0.375
13290	112960	115.129134232523	-0.125
13290	113016	115.218252207087	0.375
13290	113285	115.423662041068	0.75
13290	113994	116.123662041068	0.25
13290	114260	116.331706353566	0.875
13290	114549	116.638169860137	0.75
13290	114735	116.801790802186	0.75
13290	115284	117.245325823382	0.25
13290	115398	117.309995568583	0.375
13290	115708	117.550114642574	0.75
13290	115778	117.596958551695	0.75
13290	116296	118.003560918114	0.5
13290	116755	118.403560918114	0.625
13290	117752	119.203660918214	0
13290	118508	119.903736394059	0.125
13290	119323	120.620993162195	0.25
13290	119588	120.875696962261	0.5
13290	119992	121.275796962361	0.5
13290	120451	121.675796962361	0.625
13290	121070	122.17767675168	0.5
13290	121085	122.192416940436	0.5
13290	121826	122.88643133544	0.25
13290	122186	123.199540369471	0.75
13290	122246	123.247856924989	0.125
13290	123190	123.94989167556	0.125
13290	124071	124.74989167556	0.125
13290	125816	126.252824058521	-0.875
13290	126443	126.858839438659	0.375
13290	126674	127.103835488995	0.25
13290	127132	127.47057478167	0.375
13290	128078	128.17067478177	0.125
13290	128904	128.87067478177	0.25
13290	129940	129.673594181389	0
13290	130181	129.86236802332	0.375
13290	130500	130.065092242507	0.75
13290	131026	130.465092242507	0.625
13290	131290	130.672433412852	0.875
13290	131417	130.779712931971	0.875
13290	131915	131.179712931971	0.5
13290	132488	131.62729198106	0.375
13290	132777	131.889553029451	0.25
13290	133981	132.99113560985	-0.5
13290	134435	133.39113560985	0.625
13290	135226	134.004596433991	0.375
13290	135458	134.208701090519	0.875
13290	135728	134.41707637557	0.75
13290	136595	135.224758376923	-0.125
13290	137096	135.638254636975	0.625
13290	137134	135.701126565335	0.625
13290	137561	136.028364561015	0.5
13290	137662	136.104017281888	0.5
13290	137668	136.107240665233	0.5
13290	137838	136.244533171255	0.375
13290	138066	136.411752237227	0.75
13290	138761	136.920559237437	0.25
13290	140096	138.020559237437	-0.5
13290	141157	139.028216438824	-0.25
13290	141400	139.32886020204	0.75
13290	141762	139.934553275533	0.25
13290	141856	140.160863980937	0.875
13291	142	20.1000000001	0.1
13291	468	20.503940483608	0.4
13291	797	20.91107712055	0.1
13291	2432	22.321086648524	0.4
13291	3463	23.120795020697	0.3
13291	3616	23.221086648524	0.9
13291	4034	23.521585655008	0.3
13291	4062	23.525467264916	0.4
13291	4089	23.530701079323	0.3
13291	4508	23.833094942274	0.3
13291	4514	23.834966293769	0.3
13291	5027	24.237324633211	0.4
13291	5663	24.737324633211	0.5
13291	6051	25.037424633311	0.3
13291	6518	25.437424633311	0.4
13291	7265	26.047272550462	0.6
13291	7361	26.13507212093	0.3
13291	7578	26.337363006494	0.2
13291	7732	26.537363006494	0.2
13291	8143	26.945875313457	0.4
13291	8567	27.348154255976	0.4
13291	8578	27.349369425682	0.7
13291	9325	27.949469425782	0.6
13291	9758	28.349469425782	0.4
13291	10265	28.756290319726	0.4
13291	11095	29.561330569436	0.8
13291	11393	29.780129727375	0.2
13291	11435	29.788641786417	0
13291	12377	30.488641786417	0.7
13291	12394	30.490627945938	0.3
13291	12591	30.599379587084	0.1
13291	13095	30.999379587084	0.4
13291	13496	31.306242231199	0.3
13291	14158	31.907690362838	0.6
13291	14485	32.213729286757	0.4
13291	14886	32.619724723107	0.4
13291	15340	33.01153717557	1.1
13291	15388	33.020613078982	0
13291	15914	33.420613078982	0.4
13291	16225	33.62621924169	0.2
13291	17481	34.72621924169	1.1
13291	18034	35.22631924179	0.5
13291	18607	35.72631924179	0.5
13291	19287	36.236030601607	0.1
13291	20262	37.045140454162	0.8
13291	20388	37.147572197143	0.5
13291	21083	37.750821333175	0.6
13291	21432	38.050821333175	0.3
13291	22064	38.655929295101	0.2
13291	22399	38.956217902304	0.9
13291	23181	39.556317902404	0.6
13291	23812	40.056317902404	0.5
13291	24043	40.264899395858	0.2
13291	24329	40.470089604854	0.2
13291	25175	41.193283088895	0.6
13291	25240	41.256469007759	0.8
13291	25244	41.256569007759	0.8
13291	25486	41.457726604326	0.2
13291	25495	41.466180103298	0.2
13291	25510	41.466675659948	0
13291	26247	42.166675659948	0.7
13291	27391	42.966775660048	0.8
13291	27682	43.166775660048	0.2
13291	27838	43.314847330588	0.2
13291	29235	44.514947330688	1.2
13291	29853	45.014947330688	0.5
13291	30183	45.324693558778	0.3
13291	30798	45.834539479018	0.5
13291	31049	46.045746879035	0.2
13291	31402	46.266840958331	0.3
13291	31598	46.447421185921	0.4
13291	31763	46.551677133161	0.1
13291	31910	46.667568542369	0.4
13291	31933	46.669961948055	0
13291	32346	46.969961948055	0.3
13291	33080	47.570061948155	0.6
13291	33672	47.970061948155	0.4
13291	34190	48.373248982338	0.4
13291	34665	48.780065372001	0.4
13291	34941	49.05802997233	0.4
13291	35276	49.362614603288	0.3
13291	35302	49.384484220558	0.6
13291	36957	50.791135681598	1.4
13291	37164	50.991135681598	0.2
13291	38020	51.700371414174	0.7
13291	38449	52.041393251164	0.5
13291	38692	52.308390125967	0.6
13291	38736	52.345507751655	0.3
13291	39302	52.845807298531	0.5
13291	39790	53.345807298531	0.5
13291	40218	53.645907298631	0.3
13291	40452	53.845907298631	0.2
13291	41280	54.54742394097	0.7
13291	42185	55.451906667939	0.9
13291	42508	55.755130456812	0.3
13291	42515	55.757772280294	0.3
13291	42727	55.940108045201	1
13291	42885	56.058296074522	0.3
13291	42893	56.06571670218	0.3
13291	42997	56.165666030318	0.3