version 2
run Stability-63-20130526-18:51:16-1898
attr configname Stability
attr datetime 20130526-18:51:16
attr experiment Stability
attr inifile omnetpp.ini
attr iterationvars $0=1e0
attr iterationvars2 "$0=1e0, $repetition=3"
attr measurement $0=1e0
attr network Network
attr processid 1898
attr repetition 3
attr replication #3
attr resultdir results
attr runnumber 63
attr seedset 63

vector 6207  Network.churner  inGoingSizeSig:vector  ETV
vector 6111  Network.dyn_peer[0]  lookupHopsSig:vector  ETV
vector 6112  Network.dyn_peer[0]  lookupStabilitySig:vector  ETV
vector 6113  Network.dyn_peer[0]  lookupTimeSig:vector  ETV
vector 6129  Network.dyn_peer[6]  lookupHopsSig:vector  ETV
vector 6130  Network.dyn_peer[6]  lookupStabilitySig:vector  ETV
vector 6131  Network.dyn_peer[6]  lookupTimeSig:vector  ETV
vector 6153  Network.dyn_peer[14]  lookupHopsSig:vector  ETV
vector 6154  Network.dyn_peer[14]  lookupStabilitySig:vector  ETV
vector 6155  Network.dyn_peer[14]  lookupTimeSig:vector  ETV
vector 6171  Network.dyn_peer[20]  lookupHopsSig:vector  ETV
vector 6172  Network.dyn_peer[20]  lookupStabilitySig:vector  ETV
vector 6173  Network.dyn_peer[20]  lookupTimeSig:vector  ETV
vector 6174  Network.dyn_peer[21]  lookupHopsSig:vector  ETV
vector 6175  Network.dyn_peer[21]  lookupStabilitySig:vector  ETV
vector 6176  Network.dyn_peer[21]  lookupTimeSig:vector  ETV
vector 6201  Network.dyn_peer[30]  lookupHopsSig:vector  ETV
vector 6202  Network.dyn_peer[30]  lookupStabilitySig:vector  ETV
vector 6203  Network.dyn_peer[30]  lookupTimeSig:vector  ETV
vector 6114  Network.dyn_peer[1]  lookupHopsSig:vector  ETV
vector 6115  Network.dyn_peer[1]  lookupStabilitySig:vector  ETV
vector 6116  Network.dyn_peer[1]  lookupTimeSig:vector  ETV
vector 6117  Network.dyn_peer[2]  lookupHopsSig:vector  ETV
vector 6118  Network.dyn_peer[2]  lookupStabilitySig:vector  ETV
vector 6119  Network.dyn_peer[2]  lookupTimeSig:vector  ETV
vector 6120  Network.dyn_peer[3]  lookupHopsSig:vector  ETV
vector 6121  Network.dyn_peer[3]  lookupStabilitySig:vector  ETV
vector 6122  Network.dyn_peer[3]  lookupTimeSig:vector  ETV
vector 6135  Network.dyn_peer[8]  lookupHopsSig:vector  ETV
vector 6136  Network.dyn_peer[8]  lookupStabilitySig:vector  ETV
vector 6137  Network.dyn_peer[8]  lookupTimeSig:vector  ETV
vector 6141  Network.dyn_peer[10]  lookupHopsSig:vector  ETV
vector 6142  Network.dyn_peer[10]  lookupStabilitySig:vector  ETV
vector 6143  Network.dyn_peer[10]  lookupTimeSig:vector  ETV
vector 6165  Network.dyn_peer[18]  lookupHopsSig:vector  ETV
vector 6166  Network.dyn_peer[18]  lookupStabilitySig:vector  ETV
vector 6167  Network.dyn_peer[18]  lookupTimeSig:vector  ETV
vector 6177  Network.dyn_peer[22]  lookupHopsSig:vector  ETV
vector 6178  Network.dyn_peer[22]  lookupStabilitySig:vector  ETV
vector 6179  Network.dyn_peer[22]  lookupTimeSig:vector  ETV
vector 6186  Network.dyn_peer[25]  lookupHopsSig:vector  ETV
vector 6187  Network.dyn_peer[25]  lookupStabilitySig:vector  ETV
vector 6188  Network.dyn_peer[25]  lookupTimeSig:vector  ETV
vector 6195  Network.dyn_peer[28]  lookupHopsSig:vector  ETV
vector 6196  Network.dyn_peer[28]  lookupStabilitySig:vector  ETV
vector 6197  Network.dyn_peer[28]  lookupTimeSig:vector  ETV
vector 6204  Network.dyn_peer[31]  lookupHopsSig:vector  ETV
vector 6205  Network.dyn_peer[31]  lookupStabilitySig:vector  ETV
vector 6206  Network.dyn_peer[31]  lookupTimeSig:vector  ETV
vector 6123  Network.dyn_peer[4]  lookupHopsSig:vector  ETV
vector 6124  Network.dyn_peer[4]  lookupStabilitySig:vector  ETV
vector 6125  Network.dyn_peer[4]  lookupTimeSig:vector  ETV
vector 6126  Network.dyn_peer[5]  lookupHopsSig:vector  ETV
vector 6127  Network.dyn_peer[5]  lookupStabilitySig:vector  ETV
vector 6128  Network.dyn_peer[5]  lookupTimeSig:vector  ETV
vector 6132  Network.dyn_peer[7]  lookupHopsSig:vector  ETV
vector 6133  Network.dyn_peer[7]  lookupStabilitySig:vector  ETV
vector 6134  Network.dyn_peer[7]  lookupTimeSig:vector  ETV
vector 6147  Network.dyn_peer[12]  lookupHopsSig:vector  ETV
vector 6148  Network.dyn_peer[12]  lookupStabilitySig:vector  ETV
vector 6149  Network.dyn_peer[12]  lookupTimeSig:vector  ETV
vector 6156  Network.dyn_peer[15]  lookupHopsSig:vector  ETV
vector 6157  Network.dyn_peer[15]  lookupStabilitySig:vector  ETV
vector 6158  Network.dyn_peer[15]  lookupTimeSig:vector  ETV
vector 6180  Network.dyn_peer[23]  lookupHopsSig:vector  ETV
vector 6181  Network.dyn_peer[23]  lookupStabilitySig:vector  ETV
vector 6182  Network.dyn_peer[23]  lookupTimeSig:vector  ETV
vector 6183  Network.dyn_peer[24]  lookupHopsSig:vector  ETV
vector 6184  Network.dyn_peer[24]  lookupStabilitySig:vector  ETV
vector 6185  Network.dyn_peer[24]  lookupTimeSig:vector  ETV
vector 6189  Network.dyn_peer[26]  lookupHopsSig:vector  ETV
vector 6190  Network.dyn_peer[26]  lookupStabilitySig:vector  ETV
vector 6191  Network.dyn_peer[26]  lookupTimeSig:vector  ETV
vector 6138  Network.dyn_peer[9]  lookupHopsSig:vector  ETV
vector 6139  Network.dyn_peer[9]  lookupStabilitySig:vector  ETV
vector 6140  Network.dyn_peer[9]  lookupTimeSig:vector  ETV
vector 6150  Network.dyn_peer[13]  lookupHopsSig:vector  ETV
vector 6151  Network.dyn_peer[13]  lookupStabilitySig:vector  ETV
vector 6152  Network.dyn_peer[13]  lookupTimeSig:vector  ETV
vector 6159  Network.dyn_peer[16]  lookupHopsSig:vector  ETV
vector 6160  Network.dyn_peer[16]  lookupStabilitySig:vector  ETV
vector 6161  Network.dyn_peer[16]  lookupTimeSig:vector  ETV
vector 6144  Network.dyn_peer[11]  lookupHopsSig:vector  ETV
vector 6145  Network.dyn_peer[11]  lookupStabilitySig:vector  ETV
vector 6146  Network.dyn_peer[11]  lookupTimeSig:vector  ETV
vector 6162  Network.dyn_peer[17]  lookupHopsSig:vector  ETV
vector 6163  Network.dyn_peer[17]  lookupStabilitySig:vector  ETV
vector 6164  Network.dyn_peer[17]  lookupTimeSig:vector  ETV
vector 6168  Network.dyn_peer[19]  lookupHopsSig:vector  ETV
vector 6169  Network.dyn_peer[19]  lookupStabilitySig:vector  ETV
vector 6170  Network.dyn_peer[19]  lookupTimeSig:vector  ETV
vector 6198  Network.dyn_peer[29]  lookupHopsSig:vector  ETV
vector 6199  Network.dyn_peer[29]  lookupStabilitySig:vector  ETV
vector 6200  Network.dyn_peer[29]  lookupTimeSig:vector  ETV
vector 6192  Network.dyn_peer[27]  lookupHopsSig:vector  ETV
vector 6193  Network.dyn_peer[27]  lookupStabilitySig:vector  ETV
vector 6194  Network.dyn_peer[27]  lookupTimeSig:vector  ETV
6111	32	20.001	0
6111	292	20.301	2
6111	641	20.910892788436	5
6111	978	21.314032735331	5
6111	1526	21.725669288294	3
6111	1565	21.731496004689	3
6111	1629	21.8161	7
6111	2358	22.319427682822	6
6111	3409	23.235650363244	7
6111	4239	23.835650363244	6
6111	4556	24.043633554132	5
6111	4662	24.144259300253	3
6111	4742	24.166410542382	2
6111	5560	24.869804806545	7
6111	6184	25.469804806545	6
6111	6296	25.571470315252	2
6111	6681	25.878721203193	3
6111	7843	26.778721203193	8
6111	8422	27.279547308146	4
6111	8770	27.582145598939	3
6111	9110	27.882145598939	2
6111	9753	28.490957736718	5
6111	10051	28.715228150391	8
6111	10407	29.016328150391	4
6111	10617	29.216328150391	1
6111	11470	30.021792299287	7
6111	12147	30.531948282538	5
6111	12508	30.831948282538	2
6111	13366	31.637489699193	8
6111	13732	32.040366524739	3
6111	14289	32.550081739529	6
6111	14590	32.764124751616	6
6111	14955	33.052046394046	4
6111	15292	33.352196460823	2
6111	15448	33.467635624812	6
6111	15700	33.657368956837	3
6111	15977	33.867694681912	2
6111	16351	34.267694681912	3
6111	16769	34.676280789588	4
6111	17011	34.87791355926	1
6111	17357	35.188104414358	2
6111	17679	35.401562343942	1
6111	18531	36.001562343942	6
6111	18951	36.305071910256	3
6111	19629	36.805071910256	5
6111	20359	37.455412698596	2
6111	20570	37.660592963637	1
6111	20637	37.71128592041	9
6111	20917	38.016993615957	2
6111	20944	38.0629487948	3
6111	21482	38.47360310332	4
6111	21952	38.87360310332	3
6111	22357	39.181990022993	2
6111	22597	39.385519962169	1
6111	24113	40.491676274551	13
6111	24679	40.891676274551	3
6111	25143	41.295826453488	4
6111	25344	41.481691185265	4
6111	25737	41.787726813278	3
6111	25759	41.802022443882	4
6111	25842	41.890173030316	4
6111	26484	42.391273030316	5
6111	27602	43.391273030316	9
6111	28058	43.798964011905	9
6111	28368	44.003570360322	2
6111	29436	44.909767929339	5
6111	29518	45.003570360322	10
6111	29808	45.209303332516	2
6111	30306	45.609303332516	3
6111	30815	46.01452572711	3
6111	31335	46.420496479937	3
6111	31481	46.530565378697	1
6111	31566	46.638818032072	1
6111	31634	46.730595315597	1
6111	32128	47.237923831482	5
6111	32991	48.037923831482	7
6111	33854	48.840560876616	7
6111	34062	49.042428165565	1
6111	34549	49.429976571454	2
6111	34906	49.744593614309	7
6111	35122	49.945693614309	2
6111	36088	50.853936027553	6
6111	37124	51.855036027553	10
6111	38062	52.655036027553	7
6111	39853	54.161216784911	15
6111	39998	54.26432513733	0
6111	40133	54.372459567069	4
6111	40552	54.774258519392	4
6111	41003	55.174258519392	3
6111	41344	55.480079856246	2
6111	41582	55.681179856246	2
6111	42243	56.281179856246	5
6111	42948	56.78928252524	5
6111	43302	57.049655857947	2
6111	44375	57.854237808355	8
6111	45154	58.454237808355	6
6111	45599	58.759385380621	3
6111	45654	58.792396677043	3
6111	46320	59.268534591213	5
6111	47151	59.870638709235	6
6111	47654	60.270638709235	3
6111	48123	60.678320312235	3
6111	48635	61.079420312235	4
6111	48869	61.279420312235	2
6111	49251	61.587357709697	3
6111	49493	61.787357709697	1
6111	49865	62.088787531005	2
6111	50328	62.489887531005	4
6111	51145	63.289887531005	7
6111	51731	63.896898182915	5
6111	52336	64.506913884509	5
6111	52495	64.654619072198	4
6111	52571	64.749692706022	3
6111	52677	64.850933341241	1
6111	53141	65.250933341241	3
6111	53949	65.936630860783	5
6111	54253	66.143126326735	2
6111	54420	66.260841623278	9
6111	54438	66.275968284501	7
6111	55079	66.777491399039	5
6111	55773	67.377491399039	6
6111	56205	67.779930144481	3
6111	56947	68.44724790894	4
6111	57162	68.682005251622	9
6111	57323	68.852913726212	3
6111	57816	69.259534463059	4
6111	58319	69.659534463059	4
6111	58717	69.962533318476	2
6111	58725	69.967698348728	2
6111	58952	70.173426306531	1
6111	59036	70.265361117742	2
6111	59524	70.76154003671	5
6111	59531	70.765361360186	4
6111	59551	70.781027704634	5
6111	60023	71.26164298689	4
6111	60147	71.373697279722	6
6111	60159	71.382268101897	5
6111	60684	71.883368101897	5
6111	61634	72.758014566603	6
6111	61852	72.958014566603	1
6111	62182	73.259234965551	2
6111	62355	73.387728498908	1
6111	62969	73.959273203091	6
6111	64033	74.769312876111	8
6111	64805	75.269312876111	4
6111	65022	75.435716730623	3
6111	65595	75.836816730623	4
6111	65855	76.036816730623	1
6111	66509	76.543732398238	4
6111	67574	77.544832398238	10
6111	67988	77.944832398238	3
6111	69074	78.795618540029	2
6111	69520	79.201733881666	4
6111	69865	79.502953160447	2
6111	70120	79.705213172703	1
6111	70137	79.71937849796	1
6111	70183	79.750367412471	1
6111	70192	79.766908657712	3
6111	70912	80.271981371428	5
6111	71280	80.571981371428	2
6111	71508	80.774337960224	1
6111	72479	81.475437960224	8
6111	73184	82.175437960224	6
6111	73550	82.494131784624	1
6111	73794	82.697932252718	2
6111	74240	83.097932252718	3
6111	74708	83.504598490122	4
6111	74855	83.643742968821	4
6111	75415	84.109135296108	5
6111	75568	84.226767213819	3
6111	76564	84.936661821793	8
6111	77831	85.847242725325	2
6111	77975	85.943888216303	10
6111	78442	86.344988216303	4
6111	79588	87.244988216303	9
6111	80074	87.65041884218	3
6111	80466	88.055788148647	3
6111	80621	88.182463060463	0
6111	80904	88.484057361396	2
6111	81115	88.691726835471	1
6111	81234	88.799585579267	1
6111	82345	89.78493265566	2
6111	82576	89.98490570396	7
6111	82589	89.988191175686	1
6111	83362	90.589291175686	6
6111	83876	91.089291175686	4
6111	84847	91.899061354583	9
6111	85093	92.10219398472	1
6111	85431	92.317426900983	1
6111	85845	92.706069412206	7
6111	85978	92.807775678704	7
6111	86031	92.824377825242	4
6111	86049	92.825477825242	0
6111	86781	93.425477825242	5
6111	88530	95.026971018713	11
6111	88553	95.034108944858	18
6111	88774	95.233526199858	2
6111	88792	95.240353574744	2
6111	89048	95.449801302915	1
6111	90368	96.456573463271	11
6111	91195	97.156573463271	6
6111	92447	98.158862463126	10
6111	92837	98.47131173031	2
6111	94017	99.374319287309	10
6111	95092	100.29065215613	2
6111	95373	100.574319287309	12
6111	95433	100.596619138612	2
6111	96130	101.189058236218	1
6111	96164	101.197631450355	1
6111	96549	101.501160796278	4
6111	98182	102.799625920218	4
6111	98187	102.801160796278	13
6111	98308	102.902260796278	1
6111	99679	104.002260796278	11
6111	100160	104.405975865052	3
6111	100310	104.530662621926	3
6111	100918	105.039112783826	5
6111	100995	105.107069793949	7
6111	101056	105.137394687394	6
6111	101309	105.339495155591	2
6111	101667	105.639495155591	2
6111	102145	106.056927619612	3
6111	102780	106.470922614431	6
6111	102942	106.564300250718	5
6111	103026	106.634636521478	5
6111	103561	107.044658852887	4
6111	104644	107.98380932445	4
6111	105718	108.977238089238	8
6111	106153	109.280621338017	2
6111	106464	109.481721338017	2
6111	107045	109.881721338017	3
6111	108130	110.782821338017	9
6111	108483	111.082821338017	2
6111	108895	111.486685273396	3
6111	109078	111.597582597207	1
6111	109313	111.797582597207	1
6111	110660	112.89791704781	12
6111	110671	112.899821920018	12
6111	111390	113.502762129594	6
6111	112152	114.104188168521	6
6111	112481	114.404188168521	2
6111	112667	114.607503137122	2
6111	112925	114.811099015641	1
6111	113441	115.216261198582	3
6111	113479	115.231814643193	3
6111	114038	115.740199317041	6
6111	115422	116.840199317041	10
6111	115687	117.045143653532	1
6111	116225	117.554358002476	4
6111	116352	117.655458002476	1
6111	116580	117.855458002476	1
6111	117235	118.459692830661	5
6111	117895	119.054756334833	4
6111	117920	119.06090514392	6
6111	118380	119.46118862734	3
6111	118395	119.46228862734	0
6111	119054	120.06437128575	6
6111	119368	120.287643903335	1
6111	119415	120.348407380061	1
6111	120182	120.98823445151	6
6111	120397	121.256645043638	9
6111	120436	121.268058985902	9
6111	120911	121.674541499142	4
6111	122025	122.663922128235	3
6111	122443	122.965022128235	3
6111	122842	123.265022128235	2
6111	123135	123.468757360343	1
6111	123253	123.580713223343	1
6111	123354	123.670948609053	1
6111	123789	124.074653671331	4
6111	125107	125.174653671331	13
6111	125375	125.37747027389	1
6111	126561	126.380556965936	5
6111	126569	126.384105535214	10
6111	126988	126.747451536966	3
6111	127014	126.787294847436	4
6111	127037	126.793408158849	4
6111	127724	127.402137038107	6
6111	128085	127.702137038107	2
6111	128495	128.105219019281	3
6111	128808	128.406047491873	2
6111	129186	128.721828408931	2
6111	129474	128.931065152864	2
6111	130132	129.531065152864	5
6111	130475	129.837948130719	2
6111	130738	130.043867689297	1
6111	131320	130.550704277691	4
6111	131377	130.588944363598	4
6111	131695	130.892780029884	2
6111	131907	131.094402192966	1
6111	131967	131.158424632959	5
6111	132113	131.268581196273	1
6111	132664	131.768581196273	4
6111	133365	132.369681196273	6
6111	133559	132.569681196273	1
6111	135778	134.351097679742	18
6111	136270	134.751097679742	3
6111	136541	134.970018067011	5
6111	136793	135.172681507377	1
6111	137192	135.454856981905	7
6111	137850	136.059542307615	7
6111	138361	136.759542307615	7
6111	138458	136.896874505598	0
6111	138460	136.901048168948	1
6112	32	20.001	1
6112	292	20.301	0.75
6112	641	20.910892788436	0.375
6112	978	21.314032735331	0.375
6112	1526	21.725669288294	0.625
6112	1565	21.731496004689	0.625
6112	1629	21.8161	0.125
6112	2358	22.319427682822	0.25
6112	3409	23.235650363244	0.125
6112	4239	23.835650363244	0.25
6112	4556	24.043633554132	0.375
6112	4662	24.144259300253	0.625
6112	4742	24.166410542382	0.75
6112	5560	24.869804806545	0.125
6112	6184	25.469804806545	0.25
6112	6296	25.571470315252	0.75
6112	6681	25.878721203193	0.625
6112	7843	26.778721203193	0
6112	8422	27.279547308146	0.5
6112	8770	27.582145598939	0.625
6112	9110	27.882145598939	0.75
6112	9753	28.490957736718	0.375
6112	10051	28.715228150391	0
6112	10407	29.016328150391	0.5
6112	10617	29.216328150391	0.875
6112	11470	30.021792299287	0.125
6112	12147	30.531948282538	0.375
6112	12508	30.831948282538	0.75
6112	13366	31.637489699193	0
6112	13732	32.040366524739	0.625
6112	14289	32.550081739529	0.25
6112	14590	32.764124751616	0.25
6112	14955	33.052046394046	0.5
6112	15292	33.352196460823	0.75
6112	15448	33.467635624812	0.25
6112	15700	33.657368956837	0.625
6112	15977	33.867694681912	0.75
6112	16351	34.267694681912	0.625
6112	16769	34.676280789588	0.5
6112	17011	34.87791355926	0.875
6112	17357	35.188104414358	0.75
6112	17679	35.401562343942	0.875
6112	18531	36.001562343942	0.25
6112	18951	36.305071910256	0.625
6112	19629	36.805071910256	0.375
6112	20359	37.455412698596	0.75
6112	20570	37.660592963637	0.875
6112	20637	37.71128592041	-0.125
6112	20917	38.016993615957	0.75
6112	20944	38.0629487948	0.625
6112	21482	38.47360310332	0.5
6112	21952	38.87360310332	0.625
6112	22357	39.181990022993	0.75
6112	22597	39.385519962169	0.875
6112	24113	40.491676274551	-0.625
6112	24679	40.891676274551	0.625
6112	25143	41.295826453488	0.5
6112	25344	41.481691185265	0.5
6112	25737	41.787726813278	0.625
6112	25759	41.802022443882	0.5
6112	25842	41.890173030316	0.5
6112	26484	42.391273030316	0.375
6112	27602	43.391273030316	-0.125
6112	28058	43.798964011905	-0.125
6112	28368	44.003570360322	0.75
6112	29436	44.909767929339	0.375
6112	29518	45.003570360322	-0.25
6112	29808	45.209303332516	0.75
6112	30306	45.609303332516	0.625
6112	30815	46.01452572711	0.625
6112	31335	46.420496479937	0.625
6112	31481	46.530565378697	0.875
6112	31566	46.638818032072	0.875
6112	31634	46.730595315597	0.875
6112	32128	47.237923831482	0.375
6112	32991	48.037923831482	0.125
6112	33854	48.840560876616	0.125
6112	34062	49.042428165565	0.875
6112	34549	49.429976571454	0.75
6112	34906	49.744593614309	0.125
6112	35122	49.945693614309	0.75
6112	36088	50.853936027553	0.25
6112	37124	51.855036027553	-0.25
6112	38062	52.655036027553	0.125
6112	39853	54.161216784911	-0.875
6112	39998	54.26432513733	1
6112	40133	54.372459567069	0.5
6112	40552	54.774258519392	0.5
6112	41003	55.174258519392	0.625
6112	41344	55.480079856246	0.75
6112	41582	55.681179856246	0.75
6112	42243	56.281179856246	0.375
6112	42948	56.78928252524	0.375
6112	43302	57.049655857947	0.75
6112	44375	57.854237808355	0
6112	45154	58.454237808355	0.25
6112	45599	58.759385380621	0.625
6112	45654	58.792396677043	0.625
6112	46320	59.268534591213	0.375
6112	47151	59.870638709235	0.25
6112	47654	60.270638709235	0.625
6112	48123	60.678320312235	0.625
6112	48635	61.079420312235	0.5
6112	48869	61.279420312235	0.75
6112	49251	61.587357709697	0.625
6112	49493	61.787357709697	0.875
6112	49865	62.088787531005	0.75
6112	50328	62.489887531005	0.5
6112	51145	63.289887531005	0.125
6112	51731	63.896898182915	0.375
6112	52336	64.506913884509	0.375
6112	52495	64.654619072198	0.5
6112	52571	64.749692706022	0.625
6112	52677	64.850933341241	0.875
6112	53141	65.250933341241	0.625
6112	53949	65.936630860783	0.375
6112	54253	66.143126326735	0.75
6112	54420	66.260841623278	-0.125
6112	54438	66.275968284501	0.125
6112	55079	66.777491399039	0.375
6112	55773	67.377491399039	0.25
6112	56205	67.779930144481	0.625
6112	56947	68.44724790894	0.5
6112	57162	68.682005251622	-0.125
6112	57323	68.852913726212	0.625
6112	57816	69.259534463059	0.5
6112	58319	69.659534463059	0.5
6112	58717	69.962533318476	0.75
6112	58725	69.967698348728	0.75
6112	58952	70.173426306531	0.875
6112	59036	70.265361117742	0.75
6112	59524	70.76154003671	0.375
6112	59531	70.765361360186	0.5
6112	59551	70.781027704634	0.375
6112	60023	71.26164298689	0.5
6112	60147	71.373697279722	0.25
6112	60159	71.382268101897	0.375
6112	60684	71.883368101897	0.375
6112	61634	72.758014566603	0.25
6112	61852	72.958014566603	0.875
6112	62182	73.259234965551	0.77777777612209
6112	62355	73.387728498908	0.875
6112	62969	73.959273203091	0.25
6112	64033	74.769312876111	0
6112	64805	75.269312876111	0.5
6112	65022	75.435716730623	0.625
6112	65595	75.836816730623	0.5
6112	65855	76.036816730623	0.875
6112	66509	76.543732398238	0.5
6112	67574	77.544832398238	-0.25
6112	67988	77.944832398238	0.625
6112	69074	78.795618540029	0.75
6112	69520	79.201733881666	0.5
6112	69865	79.502953160447	0.75
6112	70120	79.705213172703	0.875
6112	70137	79.71937849796	0.875
6112	70183	79.750367412471	0.875
6112	70192	79.766908657712	0.625
6112	70912	80.271981371428	0.375
6112	71280	80.571981371428	0.75
6112	71508	80.774337960224	0.875
6112	72479	81.475437960224	0
6112	73184	82.175437960224	0.25
6112	73550	82.494131784624	0.875
6112	73794	82.697932252718	0.75
6112	74240	83.097932252718	0.625
6112	74708	83.504598490122	0.5
6112	74855	83.643742968821	0.5
6112	75415	84.109135296108	0.375
6112	75568	84.226767213819	0.625
6112	76564	84.936661821793	0
6112	77831	85.847242725325	0.75
6112	77975	85.943888216303	-0.25
6112	78442	86.344988216303	0.5
6112	79588	87.244988216303	-0.125
6112	80074	87.65041884218	0.625
6112	80466	88.055788148647	0.625
6112	80621	88.182463060463	1
6112	80904	88.484057361396	0.75
6112	81115	88.691726835471	0.875
6112	81234	88.799585579267	0.875
6112	82345	89.78493265566	0.75
6112	82576	89.98490570396	0.125
6112	82589	89.988191175686	0.875
6112	83362	90.589291175686	0.25
6112	83876	91.089291175686	0.5
6112	84847	91.899061354583	-0.125
6112	85093	92.10219398472	0.875
6112	85431	92.317426900983	0.875
6112	85845	92.706069412206	0.125
6112	85978	92.807775678704	0.125
6112	86031	92.824377825242	0.5
6112	86049	92.825477825242	1
6112	86781	93.425477825242	0.375
6112	88530	95.026971018713	-0.375
6112	88553	95.034108944858	-1.25
6112	88774	95.233526199858	0.75
6112	88792	95.240353574744	0.75
6112	89048	95.449801302915	0.875
6112	90368	96.456573463271	-0.375
6112	91195	97.156573463271	0.25
6112	92447	98.158862463126	-0.25
6112	92837	98.47131173031	0.75
6112	94017	99.374319287309	-0.25
6112	95092	100.29065215613	0.75
6112	95373	100.574319287309	-0.5
6112	95433	100.596619138612	0.75
6112	96130	101.189058236218	0.875
6112	96164	101.197631450355	0.875
6112	96549	101.501160796278	0.5
6112	98182	102.799625920218	0.5
6112	98187	102.801160796278	-0.625
6112	98308	102.902260796278	0.875
6112	99679	104.002260796278	-0.375
6112	100160	104.405975865052	0.625
6112	100310	104.530662621926	0.625
6112	100918	105.039112783826	0.375
6112	100995	105.107069793949	0.125
6112	101056	105.137394687394	0.25
6112	101309	105.339495155591	0.75
6112	101667	105.639495155591	0.75
6112	102145	106.056927619612	0.625
6112	102780	106.470922614431	0.25
6112	102942	106.564300250718	0.375
6112	103026	106.634636521478	0.375
6112	103561	107.044658852887	0.5
6112	104644	107.98380932445	0.5
6112	105718	108.977238089238	0
6112	106153	109.280621338017	0.75
6112	106464	109.481721338017	0.75
6112	107045	109.881721338017	0.625
6112	108130	110.782821338017	-0.125
6112	108483	111.082821338017	0.75
6112	108895	111.486685273396	0.625
6112	109078	111.597582597207	0.875
6112	109313	111.797582597207	0.875
6112	110660	112.89791704781	-0.5
6112	110671	112.899821920018	-0.5
6112	111390	113.502762129594	0.25
6112	112152	114.104188168521	0.25
6112	112481	114.404188168521	0.75
6112	112667	114.607503137122	0.75
6112	112925	114.811099015641	0.875
6112	113441	115.216261198582	0.625
6112	113479	115.231814643193	0.625
6112	114038	115.740199317041	0.25
6112	115422	116.840199317041	-0.25
6112	115687	117.045143653532	0.875
6112	116225	117.554358002476	0.5
6112	116352	117.655458002476	0.875
6112	116580	117.855458002476	0.875
6112	117235	118.459692830661	0.375
6112	117895	119.054756334833	0.5
6112	117920	119.06090514392	0.25
6112	118380	119.46118862734	0.625
6112	118395	119.46228862734	1
6112	119054	120.06437128575	0.25
6112	119368	120.287643903335	0.875
6112	119415	120.348407380061	0.875
6112	120182	120.98823445151	0.25
6112	120397	121.256645043638	-0.125
6112	120436	121.268058985902	-0.125
6112	120911	121.674541499142	0.5
6112	122025	122.663922128235	0.625
6112	122443	122.965022128235	0.625
6112	122842	123.265022128235	0.75
6112	123135	123.468757360343	0.875
6112	123253	123.580713223343	0.875
6112	123354	123.670948609053	0.875
6112	123789	124.074653671331	0.5
6112	125107	125.174653671331	-0.625
6112	125375	125.37747027389	0.875
6112	126561	126.380556965936	0.375
6112	126569	126.384105535214	-0.25
6112	126988	126.747451536966	0.625
6112	127014	126.787294847436	0.5
6112	127037	126.793408158849	0.5
6112	127724	127.402137038107	0.25
6112	128085	127.702137038107	0.75
6112	128495	128.105219019281	0.625
6112	128808	128.406047491873	0.75
6112	129186	128.721828408931	0.75
6112	129474	128.931065152864	0.75
6112	130132	129.531065152864	0.375
6112	130475	129.837948130719	0.75
6112	130738	130.043867689297	0.875
6112	131320	130.550704277691	0.5
6112	131377	130.588944363598	0.5
6112	131695	130.892780029884	0.75
6112	131907	131.094402192966	0.875
6112	131967	131.158424632959	0.375
6112	132113	131.268581196273	0.875
6112	132664	131.768581196273	0.5
6112	133365	132.369681196273	0.25
6112	133559	132.569681196273	0.875
6112	135778	134.351097679742	-1.25
6112	136270	134.751097679742	0.625
6112	136541	134.970018067011	0.375
6112	136793	135.172681507377	0.875
6112	137192	135.454856981905	0.125
6112	137850	136.059542307615	0.125
6112	138361	136.759542307615	0.125
6112	138458	136.896874505598	1
6112	138460	136.901048168948	0.875
6113	32	20.001	0
6113	292	20.301	0.3
6113	641	20.910892788436	0.6
6113	978	21.314032735331	0.5
6113	1526	21.725669288294	0.4
6113	1565	21.731496004689	0.4
6113	1629	21.8161	0.8
6113	2358	22.319427682822	0.5
6113	3409	23.235650363244	0.6
6113	4239	23.835650363244	0.6
6113	4556	24.043633554132	0.5
6113	4662	24.144259300253	0.3
6113	4742	24.166410542382	0.3
6113	5560	24.869804806545	0.7
6113	6184	25.469804806545	0.6
6113	6296	25.571470315252	0.3
6113	6681	25.878721203193	0.3
6113	7843	26.778721203193	0.9
6113	8422	27.279547308146	0.5
6113	8770	27.582145598939	0.3
6113	9110	27.882145598939	0.3
6113	9753	28.490957736718	0.6
6113	10051	28.715228150391	0.7
6113	10407	29.016328150391	0.3
6113	10617	29.216328150391	0.2
6113	11470	30.021792299287	0.8
6113	12147	30.531948282538	0.5
6113	12508	30.831948282538	0.3
6113	13366	31.637489699193	0.8
6113	13732	32.040366524739	0.4
6113	14289	32.550081739529	0.5
6113	14590	32.764124751616	0.7
6113	14955	33.052046394046	0.5
6113	15292	33.352196460823	0.3
6113	15448	33.467635624812	0.7
6113	15700	33.657368956837	0.3
6113	15977	33.867694681912	0.2
6113	16351	34.267694681912	0.4
6113	16769	34.676280789588	0.4
6113	17011	34.87791355926	0.2
6113	17357	35.188104414358	0.3
6113	17679	35.401562343942	0.1
6113	18531	36.001562343942	0.6
6113	18951	36.305071910256	0.3
6113	19629	36.805071910256	0.5
6113	20359	37.455412698596	0.3
6113	20570	37.660592963637	0.2
6113	20637	37.71128592041	0.9
6113	20917	38.016993615957	0.3
6113	20944	38.0629487948	0.4
6113	21482	38.47360310332	0.4
6113	21952	38.87360310332	0.4
6113	22357	39.181990022993	0.3
6113	22597	39.385519962169	0.2
6113	24113	40.491676274551	1.1
6113	24679	40.891676274551	0.4
6113	25143	41.295826453488	0.4
6113	25344	41.481691185265	0.5
6113	25737	41.787726813278	0.3
6113	25759	41.802022443882	0.5
6113	25842	41.890173030316	0.4
6113	26484	42.391273030316	0.5
6113	27602	43.391273030316	1
6113	28058	43.798964011905	1
6113	28368	44.003570360322	0.2
6113	29436	44.909767929339	0.5
6113	29518	45.003570360322	1
6113	29808	45.209303332516	0.2
6113	30306	45.609303332516	0.4
6113	30815	46.01452572711	0.4
6113	31335	46.420496479937	0.4
6113	31481	46.530565378697	0.2
6113	31566	46.638818032072	0.2
6113	31634	46.730595315597	0.2
6113	32128	47.237923831482	0.5
6113	32991	48.037923831482	0.8
6113	33854	48.840560876616	0.8
6113	34062	49.042428165565	0.2
6113	34549	49.429976571454	0.3
6113	34906	49.744593614309	0.7
6113	35122	49.945693614309	0.2
6113	36088	50.853936027553	0.7
6113	37124	51.855036027553	1
6113	38062	52.655036027553	0.8
6113	39853	54.161216784911	1.5
6113	39998	54.26432513733	0.1
6113	40133	54.372459567069	0.5
6113	40552	54.774258519392	0.4
6113	41003	55.174258519392	0.4
6113	41344	55.480079856246	0.3
6113	41582	55.681179856246	0.2
6113	42243	56.281179856246	0.6
6113	42948	56.78928252524	0.5
6113	43302	57.049655857947	0.3
6113	44375	57.854237808355	0.8
6113	45154	58.454237808355	0.6
6113	45599	58.759385380621	0.3
6113	45654	58.792396677043	0.3
6113	46320	59.268534591213	0.5
6113	47151	59.870638709235	0.6
6113	47654	60.270638709235	0.4
6113	48123	60.678320312235	0.4
6113	48635	61.079420312235	0.4
6113	48869	61.279420312235	0.2
6113	49251	61.587357709697	0.3
6113	49493	61.787357709697	0.2
6113	49865	62.088787531005	0.3
6113	50328	62.489887531005	0.4
6113	51145	63.289887531005	0.8
6113	51731	63.896898182915	0.6
6113	52336	64.506913884509	0.6
6113	52495	64.654619072198	0.4
6113	52571	64.749692706022	0.4
6113	52677	64.850933341241	0.1
6113	53141	65.250933341241	0.4
6113	53949	65.936630860783	0.6
6113	54253	66.143126326735	0.2
6113	54420	66.260841623278	1
6113	54438	66.275968284501	0.8
6113	55079	66.777491399039	0.5
6113	55773	67.377491399039	0.6
6113	56205	67.779930144481	0.4
6113	56947	68.44724790894	0.5
6113	57162	68.682005251622	0.9
6113	57323	68.852913726212	0.4
6113	57816	69.259534463059	0.4
6113	58319	69.659534463059	0.4
6113	58717	69.962533318476	0.3
6113	58725	69.967698348728	0.3
6113	58952	70.173426306531	0.2
6113	59036	70.265361117742	0.3
6113	59524	70.76154003671	0.6
6113	59531	70.765361360186	0.5
6113	59551	70.781027704634	0.6
6113	60023	71.26164298689	0.5
6113	60147	71.373697279722	0.6
6113	60159	71.382268101897	0.6
6113	60684	71.883368101897	0.5
6113	61634	72.758014566603	0.6
6113	61852	72.958014566603	0.2
6113	62182	73.259234965551	0.3
6113	62355	73.387728498908	0.2
6113	62969	73.959273203091	0.7
6113	64033	74.769312876111	0.8
6113	64805	75.269312876111	0.5
6113	65022	75.435716730623	0.4
6113	65595	75.836816730623	0.4
6113	65855	76.036816730623	0.2
6113	66509	76.543732398238	0.5
6113	67574	77.544832398238	1
6113	67988	77.944832398238	0.4
6113	69074	78.795618540029	0.3
6113	69520	79.201733881666	0.4