version 2
run Stability-22-20130526-18:48:50-1898
attr configname Stability
attr datetime 20130526-18:48:50
attr experiment Stability
attr inifile omnetpp.ini
attr iterationvars $0=1e4
attr iterationvars2 "$0=1e4, $repetition=2"
attr measurement $0=1e4
attr network Network
attr processid 1898
attr repetition 2
attr replication #2
attr resultdir results
attr runnumber 22
attr seedset 22

vector 2230  Network.churner  inGoingSizeSig:vector  ETV
vector 2134  Network.dyn_peer[0]  lookupHopsSig:vector  ETV
vector 2135  Network.dyn_peer[0]  lookupStabilitySig:vector  ETV
vector 2136  Network.dyn_peer[0]  lookupTimeSig:vector  ETV
vector 2137  Network.dyn_peer[1]  lookupHopsSig:vector  ETV
vector 2138  Network.dyn_peer[1]  lookupStabilitySig:vector  ETV
vector 2139  Network.dyn_peer[1]  lookupTimeSig:vector  ETV
vector 2140  Network.dyn_peer[2]  lookupHopsSig:vector  ETV
vector 2141  Network.dyn_peer[2]  lookupStabilitySig:vector  ETV
vector 2142  Network.dyn_peer[2]  lookupTimeSig:vector  ETV
vector 2143  Network.dyn_peer[3]  lookupHopsSig:vector  ETV
vector 2144  Network.dyn_peer[3]  lookupStabilitySig:vector  ETV
vector 2145  Network.dyn_peer[3]  lookupTimeSig:vector  ETV
vector 2146  Network.dyn_peer[4]  lookupHopsSig:vector  ETV
vector 2147  Network.dyn_peer[4]  lookupStabilitySig:vector  ETV
vector 2148  Network.dyn_peer[4]  lookupTimeSig:vector  ETV
vector 2149  Network.dyn_peer[5]  lookupHopsSig:vector  ETV
vector 2150  Network.dyn_peer[5]  lookupStabilitySig:vector  ETV
vector 2151  Network.dyn_peer[5]  lookupTimeSig:vector  ETV
vector 2152  Network.dyn_peer[6]  lookupHopsSig:vector  ETV
vector 2153  Network.dyn_peer[6]  lookupStabilitySig:vector  ETV
vector 2154  Network.dyn_peer[6]  lookupTimeSig:vector  ETV
vector 2155  Network.dyn_peer[7]  lookupHopsSig:vector  ETV
vector 2156  Network.dyn_peer[7]  lookupStabilitySig:vector  ETV
vector 2157  Network.dyn_peer[7]  lookupTimeSig:vector  ETV
vector 2158  Network.dyn_peer[8]  lookupHopsSig:vector  ETV
vector 2159  Network.dyn_peer[8]  lookupStabilitySig:vector  ETV
vector 2160  Network.dyn_peer[8]  lookupTimeSig:vector  ETV
vector 2161  Network.dyn_peer[9]  lookupHopsSig:vector  ETV
vector 2162  Network.dyn_peer[9]  lookupStabilitySig:vector  ETV
vector 2163  Network.dyn_peer[9]  lookupTimeSig:vector  ETV
vector 2164  Network.dyn_peer[10]  lookupHopsSig:vector  ETV
vector 2165  Network.dyn_peer[10]  lookupStabilitySig:vector  ETV
vector 2166  Network.dyn_peer[10]  lookupTimeSig:vector  ETV
vector 2167  Network.dyn_peer[11]  lookupHopsSig:vector  ETV
vector 2168  Network.dyn_peer[11]  lookupStabilitySig:vector  ETV
vector 2169  Network.dyn_peer[11]  lookupTimeSig:vector  ETV
vector 2170  Network.dyn_peer[12]  lookupHopsSig:vector  ETV
vector 2171  Network.dyn_peer[12]  lookupStabilitySig:vector  ETV
vector 2172  Network.dyn_peer[12]  lookupTimeSig:vector  ETV
vector 2173  Network.dyn_peer[13]  lookupHopsSig:vector  ETV
vector 2174  Network.dyn_peer[13]  lookupStabilitySig:vector  ETV
vector 2175  Network.dyn_peer[13]  lookupTimeSig:vector  ETV
vector 2176  Network.dyn_peer[14]  lookupHopsSig:vector  ETV
vector 2177  Network.dyn_peer[14]  lookupStabilitySig:vector  ETV
vector 2178  Network.dyn_peer[14]  lookupTimeSig:vector  ETV
vector 2179  Network.dyn_peer[15]  lookupHopsSig:vector  ETV
vector 2180  Network.dyn_peer[15]  lookupStabilitySig:vector  ETV
vector 2181  Network.dyn_peer[15]  lookupTimeSig:vector  ETV
vector 2182  Network.dyn_peer[16]  lookupHopsSig:vector  ETV
vector 2183  Network.dyn_peer[16]  lookupStabilitySig:vector  ETV
vector 2184  Network.dyn_peer[16]  lookupTimeSig:vector  ETV
vector 2185  Network.dyn_peer[17]  lookupHopsSig:vector  ETV
vector 2186  Network.dyn_peer[17]  lookupStabilitySig:vector  ETV
vector 2187  Network.dyn_peer[17]  lookupTimeSig:vector  ETV
vector 2188  Network.dyn_peer[18]  lookupHopsSig:vector  ETV
vector 2189  Network.dyn_peer[18]  lookupStabilitySig:vector  ETV
vector 2190  Network.dyn_peer[18]  lookupTimeSig:vector  ETV
vector 2191  Network.dyn_peer[19]  lookupHopsSig:vector  ETV
vector 2192  Network.dyn_peer[19]  lookupStabilitySig:vector  ETV
vector 2193  Network.dyn_peer[19]  lookupTimeSig:vector  ETV
vector 2194  Network.dyn_peer[20]  lookupHopsSig:vector  ETV
vector 2195  Network.dyn_peer[20]  lookupStabilitySig:vector  ETV
vector 2196  Network.dyn_peer[20]  lookupTimeSig:vector  ETV
vector 2197  Network.dyn_peer[21]  lookupHopsSig:vector  ETV
vector 2198  Network.dyn_peer[21]  lookupStabilitySig:vector  ETV
vector 2199  Network.dyn_peer[21]  lookupTimeSig:vector  ETV
vector 2200  Network.dyn_peer[22]  lookupHopsSig:vector  ETV
vector 2201  Network.dyn_peer[22]  lookupStabilitySig:vector  ETV
vector 2202  Network.dyn_peer[22]  lookupTimeSig:vector  ETV
vector 2203  Network.dyn_peer[23]  lookupHopsSig:vector  ETV
vector 2204  Network.dyn_peer[23]  lookupStabilitySig:vector  ETV
vector 2205  Network.dyn_peer[23]  lookupTimeSig:vector  ETV
vector 2206  Network.dyn_peer[24]  lookupHopsSig:vector  ETV
vector 2207  Network.dyn_peer[24]  lookupStabilitySig:vector  ETV
vector 2208  Network.dyn_peer[24]  lookupTimeSig:vector  ETV
vector 2209  Network.dyn_peer[25]  lookupHopsSig:vector  ETV
vector 2210  Network.dyn_peer[25]  lookupStabilitySig:vector  ETV
vector 2211  Network.dyn_peer[25]  lookupTimeSig:vector  ETV
vector 2212  Network.dyn_peer[26]  lookupHopsSig:vector  ETV
vector 2213  Network.dyn_peer[26]  lookupStabilitySig:vector  ETV
vector 2214  Network.dyn_peer[26]  lookupTimeSig:vector  ETV
vector 2215  Network.dyn_peer[27]  lookupHopsSig:vector  ETV
vector 2216  Network.dyn_peer[27]  lookupStabilitySig:vector  ETV
vector 2217  Network.dyn_peer[27]  lookupTimeSig:vector  ETV
vector 2218  Network.dyn_peer[28]  lookupHopsSig:vector  ETV
vector 2219  Network.dyn_peer[28]  lookupStabilitySig:vector  ETV
vector 2220  Network.dyn_peer[28]  lookupTimeSig:vector  ETV
vector 2221  Network.dyn_peer[29]  lookupHopsSig:vector  ETV
vector 2222  Network.dyn_peer[29]  lookupStabilitySig:vector  ETV
vector 2223  Network.dyn_peer[29]  lookupTimeSig:vector  ETV
vector 2224  Network.dyn_peer[30]  lookupHopsSig:vector  ETV
vector 2225  Network.dyn_peer[30]  lookupStabilitySig:vector  ETV
vector 2226  Network.dyn_peer[30]  lookupTimeSig:vector  ETV
vector 2227  Network.dyn_peer[31]  lookupHopsSig:vector  ETV
vector 2228  Network.dyn_peer[31]  lookupStabilitySig:vector  ETV
vector 2229  Network.dyn_peer[31]  lookupTimeSig:vector  ETV
2134	31	30.1	1
2134	34	30.3	1
2134	38	30.507443965782	1
2134	42	30.71667666505	1
2134	1035	350	0
2134	1038	350.2	1
2134	1042	350.402121028588	1
2134	1049	350.624333818791	1
2134	2070	670.1	1
2134	2074	670.305961602954	1
2134	2080	670.523508292777	1
2134	2087	670.837708510252	2
2134	3084	990.1	1
2134	3087	990.3	1
2134	3092	990.510631441245	1
2134	3098	990.819983816981	2
2134	4122	1310	0
2134	4125	1310.2	1
2134	4138	1310.453532332683	1
2134	4142	1310.661731616221	1
2134	5189	1630.1	1
2134	5193	1630.4	2
2134	5199	1630.70327741679	2
2134	5203	1630.905121149678	1
2134	6227	1950.1	1
2134	6230	1950.3	1
2134	6235	1950.513670627721	1
2134	6241	1950.823755578549	2
2134	7274	2270.2	2
2134	7278	2270.5	2
2134	7285	2270.729163402685	1
2134	7292	2270.955858812016	1
2134	8314	2590.2	2
2134	8318	2590.5	2
2134	8322	2590.70946659767	1
2134	8326	2590.917696562138	1
2134	9325	2910.3	3
2134	9328	2910.5	1
2134	9333	2910.712433926148	1
2134	9340	2910.934379420401	1
2134	10400	3230.2	2
2134	10404	3230.409336764228	1
2134	10412	3230.738543193851	2
2134	10424	3230.973023489037	1
2134	11450	3550.1	1
2134	11454	3550.4	2
2134	11458	3550.60544837404	1
2134	11467	3550.922963542637	2
2134	12495	3870	0
2134	12498	3870.2	1
2134	12502	3870.404054213222	1
2134	12507	3870.705552478232	2
2134	13563	4190	0
2134	13566	4190.2	1
2134	13571	4190.41127724487	1
2134	13583	4190.758719164594	2
2134	14577	4510	0
2134	14581	4510.3	2
2134	14587	4510.604708964021	2
2134	14591	4510.807311858946	1
2134	15627	4830.1	1
2134	15631	4830.4	2
2134	15635	4830.606230797367	1
2134	15639	4830.810286479925	1
2134	16661	5150.1	1
2134	16664	5150.3	1
2134	16668	5150.500047764638	1
2134	16673	5150.713892579021	1
2134	17736	5470.1	1
2134	17740	5470.302566759455	1
2134	17744	5470.502761273085	1
2134	17751	5470.818121132912	2
2134	18773	5790.2	2
2134	18776	5790.4	1
2134	18781	5790.605808829895	1
2134	18789	5790.931496685524	2
2134	19798	6110.1	1
2134	19801	6110.3	1
2134	19805	6110.504489625871	1
2134	19809	6110.707857107579	1
2134	20833	6430.1	1
2134	20838	6430.408423886371	2
2134	20846	6430.723061865315	2
2134	20852	6430.934415054665	1
2134	21849	6750.1	1
2134	21855	6750.413578153315	2
2134	21864	6750.730475060263	2
2134	21868	6750.937434533092	1
2134	22886	7070.1	1
2134	22890	7070.4	2
2134	22894	7070.607052664177	1
2134	22912	7070.983264516232	2
2134	23951	7390.1	1
2134	23955	7390.4	2
2134	23960	7390.605564997644	1
2134	23965	7390.812293618138	1
2134	24976	7710.1	1
2134	24980	7710.4	2
2134	24984	7710.603792001381	1
2134	24988	7710.807292072353	1
2134	26013	8030.1	1
2134	26018	8030.407050774833	2
2134	26022	8030.611289827946	1
2134	26027	8030.81819064965	1
2134	27057	8350.1	1
2134	27062	8350.407761014974	2
2134	27068	8350.618612369592	1
2134	27072	8350.822870225924	1
2134	28114	8670.1	1
2134	28118	8670.4	2
2134	28125	8670.621340437153	1
2134	28129	8670.824398610441	1
2134	29137	8990.1	1
2134	29142	8990.402197121959	2
2134	29146	8990.604729612674	1
2134	29152	8990.919892205778	2
2134	30183	9310.1	1
2134	30187	9310.304748092673	1
2134	30191	9310.514467842399	1
2134	30195	9310.723213334695	1
2134	31200	9630	0
2134	31203	9630.2	1
2134	31207	9630.405711952785	1
2134	31219	9630.642592616363	1
2134	32244	9950.2	2
2134	32248	9950.5	2
2134	32253	9950.800795558562	2
2134	32257	9951.005200923445	1
2134	33294	10270.2	2
2134	33298	10270.5	2
2134	33306	10270.736419298189	1
2134	33315	10271.060104138005	2
2134	34381	10590.3	3
2134	34385	10590.6	2
2134	34390	10590.90303802869	2
2134	34398	10591.125940227666	1
2134	35407	10910	0
2134	35413	10910.2128147289	1
2134	35417	10910.416639897917	1
2134	35423	10910.726757284668	2
2134	36467	11230.2	2
2134	36471	11230.5	2
2134	36475	11230.707769068225	1
2134	36479	11230.915273038201	1
2134	37491	11550.2	2
2134	37494	11550.4	1
2134	37498	11550.608603657037	1
2134	37506	11550.940873073142	2
2134	38532	11870.2	2
2134	38536	11870.5	2
2134	38540	11870.705465387669	1
2134	38546	11870.929279961232	1
2134	39562	12190.1	1
2134	39565	12190.3	1
2134	39570	12190.518975740433	1
2134	39576	12190.741456583931	1
2134	40598	12510.1	1
2134	40601	12510.3	1
2134	40607	12510.516179602245	1
2134	40613	12510.729064290358	1
2134	41673	12830.1	1
2134	41676	12830.3	1
2134	41681	12830.506317872246	1
2134	41686	12830.811671205111	2
2134	42724	13150	0
2134	42729	13150.301154536723	2
2134	42738	13150.523403474991	1
2134	42743	13150.736766509534	1
2134	43750	13470.1	1
2134	43755	13470.409479930861	2
2134	43760	13470.710166563209	2
2134	43766	13470.916895462447	1
2134	44790	13790.3	3
2134	44793	13790.5	1
2134	44797	13790.70913478696	1
2134	44801	13790.918291217104	1
2134	45825	14110	0
2134	45830	14110.303358903471	2
2134	45834	14110.503691499321	1
2134	45840	14110.81246780823	2
2134	46871	14430.1	1
2134	46876	14430.400795658202	2
2134	46881	14430.607819697383	1
2134	46888	14430.833454652781	1
2134	47889	14750.1	1
2134	47892	14750.3	1
2134	47897	14750.506204788463	1
2134	47903	14750.823365853125	2
2134	48961	15070.3	3
2134	48965	15070.6	2
2134	48970	15070.806066519768	1
2134	48977	15071.023153713574	1
2134	49988	15390.1	1
2134	49991	15390.3	1
2134	49997	15390.605870728914	2
2134	50003	15390.821238897404	1
2134	50991	15710.1	1
2134	50995	15710.4	2
2134	51001	15710.612279145909	1
2134	51010	15710.847283735368	1
2134	52035	16030.1	1
2134	52038	16030.3	1
2134	52043	16030.502288859588	1
2134	52048	16030.712523754593	1
2134	53089	16350.1	1
2134	53093	16350.4	2
2134	53097	16350.603215969849	1
2134	53106	16350.838934235609	1
2134	54139	16670.1	1
2134	54143	16670.303337120385	1
2134	54148	16670.50912484868	1
2134	54152	16670.715099545277	1
2134	55180	16990.1	1
2134	55183	16990.3	1
2134	55187	16990.508229112885	1
2134	55192	16990.808769102251	2
2134	56229	17310.1	1
2134	56233	17310.4	2
2134	56238	17310.703915990835	2
2134	56242	17310.907626176459	1
2134	57289	17630.2	2
2134	57293	17630.5	2
2134	57298	17630.807082580819	2
2134	57314	17631.156134446835	2
2134	58351	17950	0
2134	58356	17950.305562540558	2
2134	58362	17950.524519607292	1
2134	58369	17950.746859312046	1
2134	59432	18270.1	1
2134	59436	18270.4	2
2134	59440	18270.600301710946	1
2134	59446	18270.910924404616	2
2134	60498	18590.2	2
2134	60502	18590.5	2
2134	60507	18590.71538267264	1
2134	60513	18591.025315476724	2
2134	61540	18910.1	1
2134	61543	18910.3	1
2134	61548	18910.602215711164	2
2134	61553	18910.905500881293	2
2134	62578	19230.1	1
2134	62582	19230.4	2
2134	62586	19230.604727237063	1
2134	62590	19230.804836523701	1
2134	63614	19550.1	1
2134	63618	19550.4	2
2134	63623	19550.614035928199	1
2134	63632	19550.850424106326	1
2134	64664	19870.1	1
2134	64668	19870.30322821516	1
2134	64674	19870.605698583858	2
2134	64679	19870.823392563318	1
2134	65686	20190.3	3
2134	65689	20190.5	1
2134	65695	20190.810045994817	2
2134	65700	20191.113856871809	2
2135	31	30.1	0.875
2135	34	30.3	0.875
2135	38	30.507443965782	0.875
2135	42	30.71667666505	0.875
2135	1035	350	1
2135	1038	350.2	0.875
2135	1042	350.402121028588	0.875
2135	1049	350.624333818791	0.875
2135	2070	670.1	0.875
2135	2074	670.305961602954	0.875
2135	2080	670.523508292777	0.875
2135	2087	670.837708510252	0.75
2135	3084	990.1	0.875
2135	3087	990.3	0.875
2135	3092	990.510631441245	0.875
2135	3098	990.819983816981	0.75
2135	4122	1310	1
2135	4125	1310.2	0.875
2135	4138	1310.453532332683	0.875
2135	4142	1310.661731616221	0.875
2135	5189	1630.1	0.875
2135	5193	1630.4	0.75
2135	5199	1630.70327741679	0.75
2135	5203	1630.905121149678	0.875
2135	6227	1950.1	0.875
2135	6230	1950.3	0.875
2135	6235	1950.513670627721	0.875
2135	6241	1950.823755578549	0.75
2135	7274	2270.2	0.75
2135	7278	2270.5	0.75
2135	7285	2270.729163402685	0.875
2135	7292	2270.955858812016	0.875
2135	8314	2590.2	0.75
2135	8318	2590.5	0.75
2135	8322	2590.70946659767	0.875
2135	8326	2590.917696562138	0.875
2135	9325	2910.3	0.625
2135	9328	2910.5	0.875
2135	9333	2910.712433926148	0.875
2135	9340	2910.934379420401	0.875
2135	10400	3230.2	0.75
2135	10404	3230.409336764228	0.875
2135	10412	3230.738543193851	0.75
2135	10424	3230.973023489037	0.875
2135	11450	3550.1	0.875
2135	11454	3550.4	0.75
2135	11458	3550.60544837404	0.875
2135	11467	3550.922963542637	0.75
2135	12495	3870	1
2135	12498	3870.2	0.875
2135	12502	3870.404054213222	0.875
2135	12507	3870.705552478232	0.75
2135	13563	4190	1
2135	13566	4190.2	0.875
2135	13571	4190.41127724487	0.875
2135	13583	4190.758719164594	0.75
2135	14577	4510	1
2135	14581	4510.3	0.75
2135	14587	4510.604708964021	0.75
2135	14591	4510.807311858946	0.875
2135	15627	4830.1	0.875
2135	15631	4830.4	0.75
2135	15635	4830.606230797367	0.875
2135	15639	4830.810286479925	0.875
2135	16661	5150.1	0.875
2135	16664	5150.3	0.875
2135	16668	5150.500047764638	0.875
2135	16673	5150.713892579021	0.875
2135	17736	5470.1	0.875
2135	17740	5470.302566759455	0.875
2135	17744	5470.502761273085	0.875
2135	17751	5470.818121132912	0.75
2135	18773	5790.2	0.75
2135	18776	5790.4	0.875
2135	18781	5790.605808829895	0.875
2135	18789	5790.931496685524	0.75
2135	19798	6110.1	0.875
2135	19801	6110.3	0.875
2135	19805	6110.504489625871	0.875
2135	19809	6110.707857107579	0.875
2135	20833	6430.1	0.875
2135	20838	6430.408423886371	0.75
2135	20846	6430.723061865315	0.75
2135	20852	6430.934415054665	0.875
2135	21849	6750.1	0.875
2135	21855	6750.413578153315	0.75
2135	21864	6750.730475060263	0.75
2135	21868	6750.937434533092	0.875
2135	22886	7070.1	0.875
2135	22890	7070.4	0.75
2135	22894	7070.607052664177	0.875
2135	22912	7070.983264516232	0.75
2135	23951	7390.1	0.875
2135	23955	7390.4	0.75
2135	23960	7390.605564997644	0.875
2135	23965	7390.812293618138	0.875
2135	24976	7710.1	0.875
2135	24980	7710.4	0.75
2135	24984	7710.603792001381	0.875
2135	24988	7710.807292072353	0.875
2135	26013	8030.1	0.875
2135	26018	8030.407050774833	0.75
2135	26022	8030.611289827946	0.875
2135	26027	8030.81819064965	0.875
2135	27057	8350.1	0.875
2135	27062	8350.407761014974	0.75
2135	27068	8350.618612369592	0.875
2135	27072	8350.822870225924	0.875
2135	28114	8670.1	0.875
2135	28118	8670.4	0.75
2135	28125	8670.621340437153	0.875
2135	28129	8670.824398610441	0.875
2135	29137	8990.1	0.875
2135	29142	8990.402197121959	0.75
2135	29146	8990.604729612674	0.875
2135	29152	8990.919892205778	0.75
2135	30183	9310.1	0.875
2135	30187	9310.304748092673	0.875
2135	30191	9310.514467842399	0.875
2135	30195	9310.723213334695	0.875
2135	31200	9630	1
2135	31203	9630.2	0.875
2135	31207	9630.405711952785	0.875
2135	31219	9630.642592616363	0.875
2135	32244	9950.2	0.75
2135	32248	9950.5	0.75
2135	32253	9950.800795558562	0.75
2135	32257	9951.005200923445	0.875
2135	33294	10270.2	0.75
2135	33298	10270.5	0.75
2135	33306	10270.736419298189	0.875
2135	33315	10271.060104138005	0.75
2135	34381	10590.3	0.625
2135	34385	10590.6	0.75
2135	34390	10590.90303802869	0.75
2135	34398	10591.125940227666	0.875
2135	35407	10910	1
2135	35413	10910.2128147289	0.875
2135	35417	10910.416639897917	0.875
2135	35423	10910.726757284668	0.75
2135	36467	11230.2	0.75
2135	36471	11230.5	0.75
2135	36475	11230.707769068225	0.875
2135	36479	11230.915273038201	0.875
2135	37491	11550.2	0.75
2135	37494	11550.4	0.875
2135	37498	11550.608603657037	0.875
2135	37506	11550.940873073142	0.75
2135	38532	11870.2	0.75
2135	38536	11870.5	0.75
2135	38540	11870.705465387669	0.875
2135	38546	11870.929279961232	0.875
2135	39562	12190.1	0.875
2135	39565	12190.3	0.875
2135	39570	12190.518975740433	0.875
2135	39576	12190.741456583931	0.875
2135	40598	12510.1	0.875
2135	40601	12510.3	0.875
2135	40607	12510.516179602245	0.875
2135	40613	12510.729064290358	0.875
2135	41673	12830.1	0.875
2135	41676	12830.3	0.875
2135	41681	12830.506317872246	0.875
2135	41686	12830.811671205111	0.75
2135	42724	13150	1
2135	42729	13150.301154536723	0.75
2135	42738	13150.523403474991	0.875
2135	42743	13150.736766509534	0.875
2135	43750	13470.1	0.875
2135	43755	13470.409479930861	0.75
2135	43760	13470.710166563209	0.75
2135	43766	13470.916895462447	0.875
2135	44790	13790.3	0.625
2135	44793	13790.5	0.875
2135	44797	13790.70913478696	0.875
2135	44801	13790.918291217104	0.875
2135	45825	14110	1
2135	45830	14110.303358903471	0.75
2135	45834	14110.503691499321	0.875
2135	45840	14110.81246780823	0.75
2135	46871	14430.1	0.875
2135	46876	14430.400795658202	0.75
2135	46881	14430.607819697383	0.875
2135	46888	14430.833454652781	0.875
2135	47889	14750.1	0.875
2135	47892	14750.3	0.875
2135	47897	14750.506204788463	0.875
2135	47903	14750.823365853125	0.75
2135	48961	15070.3	0.625
2135	48965	15070.6	0.75
2135	48970	15070.806066519768	0.875
2135	48977	15071.023153713574	0.875
2135	49988	15390.1	0.875
2135	49991	15390.3	0.875
2135	49997	15390.605870728914	0.75
2135	50003	15390.821238897404	0.875
2135	50991	15710.1	0.875
2135	50995	15710.4	0.75
2135	51001	15710.612279145909	0.875
2135	51010	15710.847283735368	0.875
2135	52035	16030.1	0.875
2135	52038	16030.3	0.875
2135	52043	16030.502288859588	0.875
2135	52048	16030.712523754593	0.875
2135	53089	16350.1	0.875
2135	53093	16350.4	0.75
2135	53097	16350.603215969849	0.875
2135	53106	16350.838934235609	0.875
2135	54139	16670.1	0.875
2135	54143	16670.303337120385	0.875
2135	54148	16670.50912484868	0.875
2135	54152	16670.715099545277	0.875
2135	55180	16990.1	0.875
2135	55183	16990.3	0.875
2135	55187	16990.508229112885	0.875
2135	55192	16990.808769102251	0.75
2135	56229	17310.1	0.875
2135	56233	17310.4	0.75
2135	56238	17310.703915990835	0.75
2135	56242	17310.907626176459	0.875
2135	57289	17630.2	0.75
2135	57293	17630.5	0.75
2135	57298	17630.807082580819	0.75
2135	57314	17631.156134446835	0.75
2135	58351	17950	1
2135	58356	17950.305562540558	0.75
2135	58362	17950.524519607292	0.875
2135	58369	17950.746859312046	0.875
2135	59432	18270.1	0.875
2135	59436	18270.4	0.75
2135	59440	18270.600301710946	0.875
2135	59446	18270.910924404616	0.75
2135	60498	18590.2	0.75
2135	60502	18590.5	0.75
2135	60507	18590.71538267264	0.875
2135	60513	18591.025315476724	0.75
2135	61540	18910.1	0.875
2135	61543	18910.3	0.875
2135	61548	18910.602215711164	0.75
2135	61553	18910.905500881293	0.75
2135	62578	19230.1	0.875
2135	62582	19230.4	0.75
2135	62586	19230.604727237063	0.875
2135	62590	19230.804836523701	0.875
2135	63614	19550.1	0.875
2135	63618	19550.4	0.75
2135	63623	19550.614035928199	0.875
2135	63632	19550.850424106326	0.875
2135	64664	19870.1	0.875
2135	64668	19870.30322821516	0.875
2135	64674	19870.605698583858	0.75
2135	64679	19870.823392563318	0.875
2135	65686	20190.3	0.625
2135	65689	20190.5	0.875
2135	65695	20190.810045994817	0.75
2135	65700	20191.113856871809	0.75
2136	31	30.1	0.1
2136	34	30.3	0.2
2136	38	30.507443965782	0.2
2136	42	30.71667666505	0.2
2136	1035	350	0
2136	1038	350.2	0.2
2136	1042	350.402121028588	0.2
2136	1049	350.624333818791	0.2
2136	2070	670.1	0.1
2136	2074	670.305961602954	0.2
2136	2080	670.523508292777	0.2
2136	2087	670.837708510252	0.3
2136	3084	990.1	0.1
2136	3087	990.3	0.2
2136	3092	990.510631441245	0.2
2136	3098	990.819983816981	0.3
2136	4122	1310	0
2136	4125	1310.2	0.2
2136	4138	1310.453532332683	0.2
2136	4142	1310.661731616221	0.2
2136	5189	1630.1	0.1
2136	5193	1630.4	0.3
2136	5199	1630.70327741679	0.3
2136	5203	1630.905121149678	0.2
2136	6227	1950.1	0.1
2136	6230	1950.3	0.2
2136	6235	1950.513670627721	0.2
2136	6241	1950.823755578549	0.3
2136	7274	2270.2	0.2
2136	7278	2270.5	0.3
2136	7285	2270.729163402685	0.2
2136	7292	2270.955858812016	0.2
2136	8314	2590.2	0.2
2136	8318	2590.5	0.3
2136	8322	2590.70946659767	0.2
2136	8326	2590.917696562138	0.2
2136	9325	2910.3	0.3
2136	9328	2910.5	0.2
2136	9333	2910.712433926148	0.2
2136	9340	2910.934379420401	0.2
2136	10400	3230.2	0.2
2136	10404	3230.409336764228	0.2
2136	10412	3230.738543193851	0.3
2136	10424	3230.973023489037	0.2
2136	11450	3550.1	0.1
2136	11454	3550.4	0.3
2136	11458	3550.60544837404	0.2
2136	11467	3550.922963542637	0.3
2136	12495	3870	0
2136	12498	3870.2	0.2
2136	12502	3870.404054213222	0.2
2136	12507	3870.705552478232	0.3
2136	13563	4190	0
2136	13566	4190.2	0.2
2136	13571	4190.41127724487	0.2
2136	13583	4190.758719164594	0.3
2136	14577	4510	0
2136	14581	4510.3	0.3
2136	14587	4510.604708964021	0.3
2136	14591	4510.807311858946	0.2
2136	15627	4830.1	0.1
2136	15631	4830.4	0.3
2136	15635	4830.606230797367	0.2
2136	15639	4830.810286479925	0.2
2136	16661	5150.1	0.1
2136	16664	5150.3	0.2
2136	16668	5150.500047764638	0.2
2136	16673	5150.713892579021	0.2
2136	17736	5470.1	0.1
2136	17740	5470.302566759455	0.2
2136	17744	5470.502761273085	0.2
2136	17751	5470.818121132912	0.3
2136	18773	5790.2	0.2
2136	18776	5790.4	0.2
2136	18781	5790.605808829895	0.2
2136	18789	5790.931496685524	0.3
2136	19798	6110.1	0.1
2136	19801	6110.3	0.2
2136	19805	6110.504489625871	0.2
2136	19809	6110.707857107579	0.2
2136	20833	6430.1	0.1
2136	20838	6430.408423886371	0.3
2136	20846	6430.723061865315	0.3
2136	20852	6430.934415054665	0.2
2136	21849	6750.1	0.1
2136	21855	6750.413578153315	0.3
2136	21864	6750.730475060263	0.3
2136	21868	6750.937434533092	0.2
2136	22886	7070.1	0.1
2136	22890	7070.4	0.3
2136	22894	7070.607052664177	0.2
2136	22912	7070.983264516232	0.3
2136	23951	7390.1	0.1
2136	23955	7390.4	0.3
2136	23960	7390.605564997644	0.2
2136	23965	7390.812293618138	0.2
2136	24976	7710.1	0.1
2136	24980	7710.4	0.3
2136	24984	7710.603792001381	0.2
2136	24988	7710.807292072353	0.2
2136	26013	8030.1	0.1
2136	26018	8030.407050774833	0.3
2136	26022	8030.611289827946	0.2
2136	26027	8030.81819064965	0.2
2136	27057	8350.1	0.1
2136	27062	8350.407761014974	0.3
2136	27068	8350.618612369592	0.2
2136	27072	8350.822870225924	0.2
2136	28114	8670.1	0.1
2136	28118	8670.4	0.3
2136	28125	8670.621340437153	0.2
2136	28129	8670.824398610441	0.2
2136	29137	8990.1	0.1
2136	29142	8990.402197121959	0.3
2136	29146	8990.604729612674	0.2
2136	29152	8990.919892205778	0.3
2136	30183	9310.1	0.1
2136	30187	9310.304748092673	0.2
2136	30191	9310.514467842399	0.2
2136	30195	9310.723213334695	0.2
2136	31200	9630	0
2136	31203	9630.2	0.2
2136	31207	9630.405711952785	0.2
2136	31219	9630.642592616363	0.2
2136	32244	9950.2	0.2
2136	32248	9950.5	0.3
2136	32253	9950.800795558562	0.3
2136	32257	9951.005200923445	0.2
2136	33294	10270.2	0.2
2136	33298	10270.5	0.3
2136	33306	10270.736419298189	0.2
2136	33315	10271.060104138005	0.3
2136	34381	10590.3	0.3
2136	34385	10590.6	0.3
2136	34390	10590.90303802869	0.3
2136	34398	10591.125940227666	0.2
2136	35407	10910	0
2136	35413	10910.2128147289	0.2
2136	35417	10910.416639897917	0.2
2136	35423	10910.726757284668	0.3
2136	36467	11230.2	0.2
2136	36471	11230.5	0.3
2136	36475	11230.707769068225	0.2
2136	36479	11230.915273038201	0.2
2136	37491	11550.2	0.2
2136	37494	11550.4	0.2
2136	37498	11550.608603657037	0.2
2136	37506	11550.940873073142	0.3
2136	38532	11870.2	0.2
2136	38536	11870.5	0.3
2136	38540	11870.705465387669	0.2
2136	38546	11870.929279961232	0.2
2136	39562	12190.1	0.1
2136	39565	12190.3	0.2
2136	39570	12190.518975740433	0.2
2136	39576	12190.741456583931	0.2
2136	40598	12510.1	0.1
2136	40601	12510.3	0.2
2136	40607	12510.516179602245	0.2
2136	40613	12510.729064290358	0.2
2136	41673	12830.1	0.1
2136	41676	12830.3	0.2
2136	41681	12830.506317872246	0.2
2136	41686	12830.811671205111	0.3
2136	42724	13150	0
2136	42729	13150.301154536723	0.3
2136	42738	13150.523403474991	0.2
2136	42743	13150.736766509534	0.2
2136	43750	13470.1	0.1
2136	43755	13470.409479930861	0.3
2136	43760	13470.710166563209	0.3
2136	43766	13470.916895462447	0.2
2136	44790	13790.3	0.3
2136	44793	13790.5	0.2
2136	44797	13790.70913478696	0.2
2136	44801	13790.918291217104	0.2
2136	45825	14110	0
2136	45830	14110.303358903471	0.3
2136	45834	14110.503691499321	0.2
2136	45840	14110.81246780823	0.3
2136	46871	14430.1	0.1
2136	46876	14430.400795658202	0.3
2136	46881	14430.607819697383	0.2
2136	46888	14430.833454652781	0.2
2136	47889	14750.1	0.1
2136	47892	14750.3	0.2
2136	47897	14750.506204788463	0.2
2136	47903	14750.823365853125	0.3
2136	48961	15070.3	0.3
2136	48965	15070.6	0.3
2136	48970	15070.806066519768	0.2
2136	48977	15071.023153713574	0.2
2136	49988	15390.1	0.1
2136	49991	15390.3	0.2
2136	49997	15390.605870728914	0.3
2136	50003	15390.821238897404	0.2
2136	50991	15710.1	0.1
2136	50995	15710.4	0.3
2136	51001	15710.612279145909	0.2
2136	51010	15710.847283735368	0.2
2136	52035	16030.1	0.1
2136	52038	16030.3	0.2
2136	52043	16030.502288859588	0.2
2136	52048	16030.712523754593	0.2
2136	53089	16350.1	0.1
2136	53093	16350.4	0.3
2136	53097	16350.603215969849	0.2
2136	53106	16350.838934235609	0.2
2136	54139	16670.1	0.1
2136	54143	16670.303337120385	0.2
2136	54148	16670.50912484868	0.2
2136	54152	16670.715099545277	0.2
2136	55180	16990.1	0.1
2136	55183	16990.3	0.2
2136	55187	16990.508229112885	0.2
2136	55192	16990.808769102251	0.3
2136	56229	17310.1	0.1
2136	56233	17310.4	0.3
2136	56238	17310.703915990835	0.3
2136	56242	17310.907626176459	0.2
2136	57289	17630.2	0.2
2136	57293	17630.5	0.3
2136	57298	17630.807082580819	0.3
2136	57314	17631.156134446835	0.3
2136	58351	17950	0
2136	58356	17950.305562540558	0.3
2136	58362	17950.524519607292	0.2
2136	58369	17950.746859312046	0.2
2136	59432	18270.1	0.1
2136	59436	18270.4	0.3
2136	59440	18270.600301710946	0.2
2136	59446	18270.910924404616	0.3
2136	60498	18590.2	0.2
2136	60502	18590.5	0.3
2136	60507	18590.71538267264	0.2
2136	60513	18591.025315476724	0.3
2136	61540	18910.1	0.1
2136	61543	18910.3	0.2
2136	61548	18910.602215711164	0.3
2136	61553	18910.905500881293	0.3
2136	62578	19230.1	0.1
2136	62582	19230.4	0.3
2136	62586	19230.604727237063	0.2
2136	62590	19230.804836523701	0.2
2136	63614	19550.1	0.1
2136	63618	19550.4	0.3
2136	63623	19550.614035928199	0.2
2136	63632	19550.850424106326	0.2
2136	64664	19870.1	0.1
2136	64668	19870.30322821516	0.2
2136	64674	19870.605698583858	0.3
2136	64679	19870.823392563318	0.2
2136	65686	20190.3	0.3
2136	65689	20190.5	0.2
2136	65695	20190.810045994817	0.3
2136	65700	20191.113856871809	0.3
2137	58	40	0
2137	62	40.3	2
2137	67	40.609283200313	2
2137	73	40.833411829514	1
2137	1066	360.1	1
2137	1069	360.3	1
2137	1075	360.614547064569	2
2137	1082	360.83483805887	1
2137	2103	680	0
2137	2106	680.2	1
2137	2110	680.402702709597	1
2137	2115	680.705806396456	2
2137	3115	1000.1	1
2137	3118	1000.3	1
2137	3124	1000.61164436466	2
2137	3131	1000.927288001957	2
2137	4159	1320.1	1
2137	4163	1320.4	2
2137	4168	1320.709417699631	2
2137	4172	1320.919134101546	1
2137	5221	1640.2	2
2137	5228	1640.412806804505	1
2137	5233	1640.619612695614	1
2137	5244	1640.855318707022	1
2137	6259	1960.2	2
2137	6263	1960.5	2
2137	6268	1960.803962079514	2
2137	6272	1961.012973195602	1
2137	7308	2280	0
2137	7312	2280.3	2
2137	7319	2280.529314606255	1
2137	7323	2280.738032831077	1
2137	8343	2600.1	1
2137	8346	2600.3	1
2137	8350	2600.507588906728	1
2137	8356	2600.817603938341	2
2137	9357	2920.1	1
2137	9361	2920.4	2
2137	9367	2920.706943628466	2
2137	9372	2921.014845620027	2
2137	10440	3240	0
2137	10444	3240.3	2
2137	10450	3240.60323863462	2
2137	10454	3240.806992242749	1
2137	11485	3560.2	2
2137	11488	3560.4	1
2137	11496	3560.71319258215	2
2137	11502	3561.028009923698	2
2137	12525	3880.2	2
2137	12529	3880.5	2
2137	12534	3880.809692891975	2
2137	12553	3881.079581827381	1
2137	13601	4200.2	2
2137	13605	4200.5	2
2137	13614	4200.731248150185	1
2137	13619	4200.94404186081	1
2137	14608	4520.1	1
2137	14612	4520.4	2
2137	14619	4520.713818460169	2
2137	14623	4520.920350252645	1
2137	15656	4840.1	1
2137	15660	4840.308353478054	1
2137	15668	4840.633183792119	2
2137	15673	4840.839974665503	1
2137	16691	5160.2	2
2137	16695	5160.5	2
2137	16700	5160.704370350609	1
2137	16707	5161.021769966004	2
2137	17768	5480.1	1
2137	17771	5480.3	1
2137	17775	5480.50877033187	1
2137	17781	5480.819052066762	2
2137	18807	5800.2	2
2137	18812	5800.404275148763	1
2137	18817	5800.712099059471	2
2137	18822	5800.919675732801	1
2137	19827	6120.2	2
2137	19830	6120.4	1