version 2
run Stability-0-20130526-18:47:42-1898
attr configname Stability
attr datetime 20130526-18:47:42
attr experiment Stability
attr inifile omnetpp.ini
attr iterationvars $0=1e6
attr iterationvars2 "$0=1e6, $repetition=0"
attr measurement $0=1e6
attr network Network
attr processid 1898
attr repetition 0
attr replication #0
attr resultdir results
attr runnumber 0
attr seedset 0

vector 96  Network.churner  inGoingSizeSig:vector  ETV
vector 0  Network.dyn_peer[0]  lookupHopsSig:vector  ETV
vector 1  Network.dyn_peer[0]  lookupStabilitySig:vector  ETV
vector 2  Network.dyn_peer[0]  lookupTimeSig:vector  ETV
vector 3  Network.dyn_peer[1]  lookupHopsSig:vector  ETV
vector 4  Network.dyn_peer[1]  lookupStabilitySig:vector  ETV
vector 5  Network.dyn_peer[1]  lookupTimeSig:vector  ETV
vector 6  Network.dyn_peer[2]  lookupHopsSig:vector  ETV
vector 7  Network.dyn_peer[2]  lookupStabilitySig:vector  ETV
vector 8  Network.dyn_peer[2]  lookupTimeSig:vector  ETV
vector 9  Network.dyn_peer[3]  lookupHopsSig:vector  ETV
vector 10  Network.dyn_peer[3]  lookupStabilitySig:vector  ETV
vector 11  Network.dyn_peer[3]  lookupTimeSig:vector  ETV
vector 12  Network.dyn_peer[4]  lookupHopsSig:vector  ETV
vector 13  Network.dyn_peer[4]  lookupStabilitySig:vector  ETV
vector 14  Network.dyn_peer[4]  lookupTimeSig:vector  ETV
vector 15  Network.dyn_peer[5]  lookupHopsSig:vector  ETV
vector 16  Network.dyn_peer[5]  lookupStabilitySig:vector  ETV
vector 17  Network.dyn_peer[5]  lookupTimeSig:vector  ETV
vector 18  Network.dyn_peer[6]  lookupHopsSig:vector  ETV
vector 19  Network.dyn_peer[6]  lookupStabilitySig:vector  ETV
vector 20  Network.dyn_peer[6]  lookupTimeSig:vector  ETV
vector 21  Network.dyn_peer[7]  lookupHopsSig:vector  ETV
vector 22  Network.dyn_peer[7]  lookupStabilitySig:vector  ETV
vector 23  Network.dyn_peer[7]  lookupTimeSig:vector  ETV
vector 24  Network.dyn_peer[8]  lookupHopsSig:vector  ETV
vector 25  Network.dyn_peer[8]  lookupStabilitySig:vector  ETV
vector 26  Network.dyn_peer[8]  lookupTimeSig:vector  ETV
vector 27  Network.dyn_peer[9]  lookupHopsSig:vector  ETV
vector 28  Network.dyn_peer[9]  lookupStabilitySig:vector  ETV
vector 29  Network.dyn_peer[9]  lookupTimeSig:vector  ETV
vector 30  Network.dyn_peer[10]  lookupHopsSig:vector  ETV
vector 31  Network.dyn_peer[10]  lookupStabilitySig:vector  ETV
vector 32  Network.dyn_peer[10]  lookupTimeSig:vector  ETV
vector 33  Network.dyn_peer[11]  lookupHopsSig:vector  ETV
vector 34  Network.dyn_peer[11]  lookupStabilitySig:vector  ETV
vector 35  Network.dyn_peer[11]  lookupTimeSig:vector  ETV
vector 36  Network.dyn_peer[12]  lookupHopsSig:vector  ETV
vector 37  Network.dyn_peer[12]  lookupStabilitySig:vector  ETV
vector 38  Network.dyn_peer[12]  lookupTimeSig:vector  ETV
vector 39  Network.dyn_peer[13]  lookupHopsSig:vector  ETV
vector 40  Network.dyn_peer[13]  lookupStabilitySig:vector  ETV
vector 41  Network.dyn_peer[13]  lookupTimeSig:vector  ETV
vector 42  Network.dyn_peer[14]  lookupHopsSig:vector  ETV
vector 43  Network.dyn_peer[14]  lookupStabilitySig:vector  ETV
vector 44  Network.dyn_peer[14]  lookupTimeSig:vector  ETV
vector 45  Network.dyn_peer[15]  lookupHopsSig:vector  ETV
vector 46  Network.dyn_peer[15]  lookupStabilitySig:vector  ETV
vector 47  Network.dyn_peer[15]  lookupTimeSig:vector  ETV
vector 48  Network.dyn_peer[16]  lookupHopsSig:vector  ETV
vector 49  Network.dyn_peer[16]  lookupStabilitySig:vector  ETV
vector 50  Network.dyn_peer[16]  lookupTimeSig:vector  ETV
vector 51  Network.dyn_peer[17]  lookupHopsSig:vector  ETV
vector 52  Network.dyn_peer[17]  lookupStabilitySig:vector  ETV
vector 53  Network.dyn_peer[17]  lookupTimeSig:vector  ETV
vector 54  Network.dyn_peer[18]  lookupHopsSig:vector  ETV
vector 55  Network.dyn_peer[18]  lookupStabilitySig:vector  ETV
vector 56  Network.dyn_peer[18]  lookupTimeSig:vector  ETV
vector 57  Network.dyn_peer[19]  lookupHopsSig:vector  ETV
vector 58  Network.dyn_peer[19]  lookupStabilitySig:vector  ETV
vector 59  Network.dyn_peer[19]  lookupTimeSig:vector  ETV
vector 60  Network.dyn_peer[20]  lookupHopsSig:vector  ETV
vector 61  Network.dyn_peer[20]  lookupStabilitySig:vector  ETV
vector 62  Network.dyn_peer[20]  lookupTimeSig:vector  ETV
vector 63  Network.dyn_peer[21]  lookupHopsSig:vector  ETV
vector 64  Network.dyn_peer[21]  lookupStabilitySig:vector  ETV
vector 65  Network.dyn_peer[21]  lookupTimeSig:vector  ETV
vector 66  Network.dyn_peer[22]  lookupHopsSig:vector  ETV
vector 67  Network.dyn_peer[22]  lookupStabilitySig:vector  ETV
vector 68  Network.dyn_peer[22]  lookupTimeSig:vector  ETV
vector 69  Network.dyn_peer[23]  lookupHopsSig:vector  ETV
vector 70  Network.dyn_peer[23]  lookupStabilitySig:vector  ETV
vector 71  Network.dyn_peer[23]  lookupTimeSig:vector  ETV
vector 72  Network.dyn_peer[24]  lookupHopsSig:vector  ETV
vector 73  Network.dyn_peer[24]  lookupStabilitySig:vector  ETV
vector 74  Network.dyn_peer[24]  lookupTimeSig:vector  ETV
vector 75  Network.dyn_peer[25]  lookupHopsSig:vector  ETV
vector 76  Network.dyn_peer[25]  lookupStabilitySig:vector  ETV
vector 77  Network.dyn_peer[25]  lookupTimeSig:vector  ETV
vector 78  Network.dyn_peer[26]  lookupHopsSig:vector  ETV
vector 79  Network.dyn_peer[26]  lookupStabilitySig:vector  ETV
vector 80  Network.dyn_peer[26]  lookupTimeSig:vector  ETV
vector 81  Network.dyn_peer[27]  lookupHopsSig:vector  ETV
vector 82  Network.dyn_peer[27]  lookupStabilitySig:vector  ETV
vector 83  Network.dyn_peer[27]  lookupTimeSig:vector  ETV
vector 84  Network.dyn_peer[28]  lookupHopsSig:vector  ETV
vector 85  Network.dyn_peer[28]  lookupStabilitySig:vector  ETV
vector 86  Network.dyn_peer[28]  lookupTimeSig:vector  ETV
vector 87  Network.dyn_peer[29]  lookupHopsSig:vector  ETV
vector 88  Network.dyn_peer[29]  lookupStabilitySig:vector  ETV
vector 89  Network.dyn_peer[29]  lookupTimeSig:vector  ETV
vector 90  Network.dyn_peer[30]  lookupHopsSig:vector  ETV
vector 91  Network.dyn_peer[30]  lookupStabilitySig:vector  ETV
vector 92  Network.dyn_peer[30]  lookupTimeSig:vector  ETV
vector 93  Network.dyn_peer[31]  lookupHopsSig:vector  ETV
vector 94  Network.dyn_peer[31]  lookupStabilitySig:vector  ETV
vector 95  Network.dyn_peer[31]  lookupTimeSig:vector  ETV
0	31	1020.2	2
0	36	1020.509446689186	2
0	40	1020.71703284539	1
0	44	1020.922251328671	1
0	1064	33020.1	1
0	1067	33020.3	1
0	1080	33020.547274848575	1
0	1096	33020.818670322773	1
0	2141	65020.1	1
0	2145	65020.4	2
0	2150	65020.704551688171	2
0	2156	65020.925150590031	1
0	3206	97020.2	2
0	3211	97020.501852323245	2
0	3217	97020.814318495059	2
0	3231	97021.06801901999	1
0	4264	129020.2	2
0	4268	129020.405436780541	1
0	4272	129020.606919466943	1
0	4276	129020.809746463411	1
0	5270	161020.3	3
0	5274	161020.6	2
0	5280	161020.91485094919	2
0	5285	161021.127280174557	1
0	6332	193020.1	1
0	6336	193020.30719620154	1
0	6340	193020.513282134577	1
0	6344	193020.722946034266	1
0	7374	225020.1	1
0	7379	225020.405855933816	2
0	7383	225020.607333947161	1
0	7388	225020.812439370731	1
0	8418	257020.2	2
0	8421	257020.4	1
0	8425	257020.602138353481	1
0	8431	257020.913988618293	2
0	9468	289020.1	1
0	9472	289020.4	2
0	9477	289020.70485030537	2
0	9481	289020.906878265731	1
0	10515	321020.2	2
0	10521	321020.509047589925	2
0	10525	321020.716621655534	1
0	10530	321020.919604837145	1
0	11563	353020.2	2
0	11567	353020.5	2
0	11571	353020.702580592164	1
0	11576	353021.004544333638	2
0	12614	385020.2	2
0	12617	385020.4	1
0	12624	385020.620911154831	1
0	12628	385020.825498383653	1
0	13670	417020.2	2
0	13674	417020.5	2
0	13678	417020.708565674663	1
0	13682	417020.912458545383	1
0	14704	449020.2	2
0	14707	449020.4	1
0	14711	449020.604352661538	1
0	14716	449020.820858383591	1
0	15712	481020.2	2
0	15717	481020.6	3
0	15721	481020.807890378953	1
0	15727	481021.110312001517	2
0	16754	513020	0
0	16757	513020.2	1
0	16761	513020.405494185823	1
0	16767	513020.722255423177	2
0	17841	545020.2	2
0	17844	545020.4	1
0	17849	545020.700942880967	2
0	17855	545021.011029987885	2
0	18879	577020.2	2
0	18884	577020.504281986509	2
0	18889	577020.813939241216	2
0	18895	577021.132450877088	2
0	19937	609020.2	2
0	19940	609020.4	1
0	19946	609020.710571865021	2
0	19952	609020.937521352651	1
0	20995	641020.2	2
0	21000	641020.508537008969	2
0	21004	641020.713802851549	1
0	21011	641020.944332155724	1
0	22045	673020.2	2
0	22049	673020.405006920984	1
0	22053	673020.614587829716	1
0	22059	673020.920202834631	2
0	23060	705020.1	1
0	23066	705020.418130586868	2
0	23073	705020.725395521635	2
0	23078	705021.025539013128	2
0	24069	737020.1	1
0	24074	737020.405929463149	2
0	24078	737020.614136714562	1
0	24084	737020.82762296327	1
0	25110	769020	0
0	25114	769020.3	2
0	25118	769020.509640511693	1
0	25123	769020.722931921984	1
0	26161	801020.1	1
0	26164	801020.3	1
0	26170	801020.516850771872	1
0	26174	801020.721702368218	1
0	27204	833020.2	2
0	27207	833020.4	1
0	27211	833020.60035551995	1
0	27216	833020.811155646272	1
0	28236	865020.2	2
0	28240	865020.5	2
0	28246	865020.809356189511	2
0	28252	865021.02220408316	1
0	29254	897020.3	3
0	29258	897020.6	2
0	29263	897020.903636604449	2
0	29268	897021.105933704284	1
0	30259	929020.2	2
0	30262	929020.4	1
0	30266	929020.607256245354	1
0	30270	929020.815378099374	1
0	31285	961020	0
0	31288	961020.2	1
0	31292	961020.402319140431	1
0	31296	961020.612302572346	1
0	32293	993020.3	3
0	32296	993020.5	1
0	32300	993020.700173427516	1
0	32305	993020.901082790518	1
0	33320	1025020.1	1
0	33323	1025020.3	1
0	33327	1025020.501453336589	1
0	33332	1025020.80970976653	2
0	34346	1057020.2	2
0	34351	1057020.6	3
0	34355	1057020.802265455338	1
0	34362	1057021.022844801925	1
0	35359	1089020.1	1
0	35366	1089020.414920835224	2
0	35371	1089020.718396668833	2
0	35375	1089020.92141119527	1
0	36401	1121020.2	2
0	36405	1121020.5	2
0	36410	1121020.711455653279	1
0	36415	1121020.920770383736	1
0	37422	1153020.2	2
0	37425	1153020.4	1
0	37433	1153020.724464656795	2
0	37442	1153020.956712575666	1
0	38476	1185020.2	2
0	38479	1185020.4	1
0	38485	1185020.610531197239	1
0	38493	1185020.845570533127	1
0	39514	1217020.2	2
0	39518	1217020.5	2
0	39523	1217020.807430228914	2
0	39539	1217021.063305455085	1
0	40546	1249020.1	1
0	40550	1249020.300915105312	1
0	40557	1249020.625027227618	2
0	40562	1249020.837430882213	1
0	41604	1281020.2	2
0	41607	1281020.4	1
0	41615	1281020.716270282026	2
0	41621	1281020.934084459339	1
0	42633	1313020.1	1
0	42636	1313020.3	1
0	42642	1313020.609423210052	2
0	42651	1313020.935383633479	2
0	43699	1345020.2	2
0	43704	1345020.502347404337	2
0	43709	1345020.804209626826	2
0	43713	1345021.008212898568	1
0	44725	1377020.1	1
0	44728	1377020.3	1
0	44732	1377020.508185961467	1
0	44736	1377020.714835636426	1
0	45777	1409020.1	1
0	45781	1409020.4	2
0	45785	1409020.608708372586	1
0	45789	1409020.81135962489	1
0	46812	1441020.2	2
0	46817	1441020.6	3
0	46822	1441020.900263385579	2
0	46828	1441021.21520168515	2
0	47841	1473020.1	1
0	47848	1473020.412792223041	2
0	47855	1473020.722930118811	2
0	47860	1473020.939043394437	1
0	48866	1505020.1	1
0	48869	1505020.3	1
0	48873	1505020.502079598593	1
0	48877	1505020.708736745935	1
0	49875	1537020.2	2
0	49880	1537020.508290158153	2
0	49886	1537020.729493491652	1
0	49896	1537020.968140506952	1
0	50930	1569020	0
0	50933	1569020.2	1
0	50938	1569020.500180587647	2
0	50942	1569020.706681552959	1
0	51949	1601020	0
0	51952	1601020.2	1
0	51957	1601020.507550940481	2
0	51962	1601020.809289434051	2
0	52979	1633020.1	1
0	52983	1633020.302705051794	1
0	52987	1633020.503994310851	1
0	52992	1633020.805653558537	2
0	54026	1665020.1	1
0	54029	1665020.3	1
0	54035	1665020.610954562173	2
0	54039	1665020.81459780942	1
0	55057	1697020.2	2
0	55061	1697020.5	2
0	55066	1697020.809076491033	2
0	55072	1697021.01973504951	1
0	56080	1729020.1	1
0	56084	1729020.4	2
0	56089	1729020.702166752731	2
0	56095	1729020.911913366845	1
0	57147	1761020.2	2
0	57150	1761020.4	1
0	57154	1761020.604654051857	1
0	57163	1761020.84030845202	1
0	58186	1793020.2	2
0	58190	1793020.409823142087	1
0	58196	1793020.721446862222	2
0	58201	1793020.931825505344	1
0	59269	1825020.3	3
0	59275	1825020.603299882273	2
0	59280	1825020.813757938803	1
0	59288	1825021.139056203668	2
0	60302	1857020.3	3
0	60305	1857020.5	1
0	60309	1857020.7000220022	1
0	60313	1857020.908757490948	1
0	61405	1889020.1	1
0	61408	1889020.3	1
0	61414	1889020.605034960945	2
0	61423	1889020.84065934139	1
0	62483	1921020.2	2
0	62486	1921020.4	1
0	62490	1921020.605751241792	1
0	62494	1921020.811503992622	1
0	63530	1953020.2	2
0	63535	1953020.504320753724	2
0	63540	1953020.72155657621	1
0	63544	1953020.922828129172	1
0	64574	1985020.1	1
0	64578	1985020.305908321959	1
0	64583	1985020.608831237644	2
0	64589	1985020.823828599708	1
0	65598	2017020.2	2
0	65601	2017020.4	1
0	65606	2017020.60616557168	1
0	65611	2017020.822077251198	1
1	31	1020.2	0.75
1	36	1020.509446689186	0.75
1	40	1020.71703284539	0.875
1	44	1020.922251328671	0.875
1	1064	33020.1	0.875
1	1067	33020.3	0.875
1	1080	33020.547274848575	0.875
1	1096	33020.818670322773	0.875
1	2141	65020.1	0.875
1	2145	65020.4	0.75
1	2150	65020.704551688171	0.75
1	2156	65020.925150590031	0.875
1	3206	97020.2	0.75
1	3211	97020.501852323245	0.75
1	3217	97020.814318495059	0.75
1	3231	97021.06801901999	0.875
1	4264	129020.2	0.75
1	4268	129020.405436780541	0.875
1	4272	129020.606919466943	0.875
1	4276	129020.809746463411	0.875
1	5270	161020.3	0.625
1	5274	161020.6	0.75
1	5280	161020.91485094919	0.75
1	5285	161021.127280174557	0.875
1	6332	193020.1	0.875
1	6336	193020.30719620154	0.875
1	6340	193020.513282134577	0.875
1	6344	193020.722946034266	0.875
1	7374	225020.1	0.875
1	7379	225020.405855933816	0.75
1	7383	225020.607333947161	0.875
1	7388	225020.812439370731	0.875
1	8418	257020.2	0.75
1	8421	257020.4	0.875
1	8425	257020.602138353481	0.875
1	8431	257020.913988618293	0.75
1	9468	289020.1	0.875
1	9472	289020.4	0.75
1	9477	289020.70485030537	0.75
1	9481	289020.906878265731	0.875
1	10515	321020.2	0.75
1	10521	321020.509047589925	0.75
1	10525	321020.716621655534	0.875
1	10530	321020.919604837145	0.875
1	11563	353020.2	0.75
1	11567	353020.5	0.75
1	11571	353020.702580592164	0.875
1	11576	353021.004544333638	0.75
1	12614	385020.2	0.75
1	12617	385020.4	0.875
1	12624	385020.620911154831	0.875
1	12628	385020.825498383653	0.875
1	13670	417020.2	0.75
1	13674	417020.5	0.75
1	13678	417020.708565674663	0.875
1	13682	417020.912458545383	0.875
1	14704	449020.2	0.75
1	14707	449020.4	0.875
1	14711	449020.604352661538	0.875
1	14716	449020.820858383591	0.875
1	15712	481020.2	0.75
1	15717	481020.6	0.625
1	15721	481020.807890378953	0.875
1	15727	481021.110312001517	0.75
1	16754	513020	1
1	16757	513020.2	0.875
1	16761	513020.405494185823	0.875
1	16767	513020.722255423177	0.75
1	17841	545020.2	0.75
1	17844	545020.4	0.875
1	17849	545020.700942880967	0.75
1	17855	545021.011029987885	0.75
1	18879	577020.2	0.75
1	18884	577020.504281986509	0.75
1	18889	577020.813939241216	0.75
1	18895	577021.132450877088	0.75
1	19937	609020.2	0.75
1	19940	609020.4	0.875
1	19946	609020.710571865021	0.75
1	19952	609020.937521352651	0.875
1	20995	641020.2	0.75
1	21000	641020.508537008969	0.75
1	21004	641020.713802851549	0.875
1	21011	641020.944332155724	0.875
1	22045	673020.2	0.75
1	22049	673020.405006920984	0.875
1	22053	673020.614587829716	0.875
1	22059	673020.920202834631	0.75
1	23060	705020.1	0.875
1	23066	705020.418130586868	0.75
1	23073	705020.725395521635	0.75
1	23078	705021.025539013128	0.75
1	24069	737020.1	0.875
1	24074	737020.405929463149	0.75
1	24078	737020.614136714562	0.875
1	24084	737020.82762296327	0.875
1	25110	769020	1
1	25114	769020.3	0.75
1	25118	769020.509640511693	0.875
1	25123	769020.722931921984	0.875
1	26161	801020.1	0.875
1	26164	801020.3	0.875
1	26170	801020.516850771872	0.875
1	26174	801020.721702368218	0.875
1	27204	833020.2	0.75
1	27207	833020.4	0.875
1	27211	833020.60035551995	0.875
1	27216	833020.811155646272	0.875
1	28236	865020.2	0.75
1	28240	865020.5	0.75
1	28246	865020.809356189511	0.75
1	28252	865021.02220408316	0.875
1	29254	897020.3	0.625
1	29258	897020.6	0.75
1	29263	897020.903636604449	0.75
1	29268	897021.105933704284	0.875
1	30259	929020.2	0.75
1	30262	929020.4	0.875
1	30266	929020.607256245354	0.875
1	30270	929020.815378099374	0.875
1	31285	961020	1
1	31288	961020.2	0.875
1	31292	961020.402319140431	0.875
1	31296	961020.612302572346	0.875
1	32293	993020.3	0.625
1	32296	993020.5	0.875
1	32300	993020.700173427516	0.875
1	32305	993020.901082790518	0.875
1	33320	1025020.1	0.875
1	33323	1025020.3	0.875
1	33327	1025020.501453336589	0.875
1	33332	1025020.80970976653	0.75
1	34346	1057020.2	0.75
1	34351	1057020.6	0.625
1	34355	1057020.802265455338	0.875
1	34362	1057021.022844801925	0.875
1	35359	1089020.1	0.875
1	35366	1089020.414920835224	0.75
1	35371	1089020.718396668833	0.75
1	35375	1089020.92141119527	0.875
1	36401	1121020.2	0.75
1	36405	1121020.5	0.75
1	36410	1121020.711455653279	0.875
1	36415	1121020.920770383736	0.875
1	37422	1153020.2	0.75
1	37425	1153020.4	0.875
1	37433	1153020.724464656795	0.75
1	37442	1153020.956712575666	0.875
1	38476	1185020.2	0.75
1	38479	1185020.4	0.875
1	38485	1185020.610531197239	0.875
1	38493	1185020.845570533127	0.875
1	39514	1217020.2	0.75
1	39518	1217020.5	0.75
1	39523	1217020.807430228914	0.75
1	39539	1217021.063305455085	0.875
1	40546	1249020.1	0.875
1	40550	1249020.300915105312	0.875
1	40557	1249020.625027227618	0.75
1	40562	1249020.837430882213	0.875
1	41604	1281020.2	0.75
1	41607	1281020.4	0.875
1	41615	1281020.716270282026	0.75
1	41621	1281020.934084459339	0.875
1	42633	1313020.1	0.875
1	42636	1313020.3	0.875
1	42642	1313020.609423210052	0.75
1	42651	1313020.935383633479	0.75
1	43699	1345020.2	0.75
1	43704	1345020.502347404337	0.75
1	43709	1345020.804209626826	0.75
1	43713	1345021.008212898568	0.875
1	44725	1377020.1	0.875
1	44728	1377020.3	0.875
1	44732	1377020.508185961467	0.875
1	44736	1377020.714835636426	0.875
1	45777	1409020.1	0.875
1	45781	1409020.4	0.75
1	45785	1409020.608708372586	0.875
1	45789	1409020.81135962489	0.875
1	46812	1441020.2	0.75
1	46817	1441020.6	0.625
1	46822	1441020.900263385579	0.75
1	46828	1441021.21520168515	0.75
1	47841	1473020.1	0.875
1	47848	1473020.412792223041	0.75
1	47855	1473020.722930118811	0.75
1	47860	1473020.939043394437	0.875
1	48866	1505020.1	0.875
1	48869	1505020.3	0.875
1	48873	1505020.502079598593	0.875
1	48877	1505020.708736745935	0.875
1	49875	1537020.2	0.75
1	49880	1537020.508290158153	0.75
1	49886	1537020.729493491652	0.875
1	49896	1537020.968140506952	0.875
1	50930	1569020	1
1	50933	1569020.2	0.875
1	50938	1569020.500180587647	0.75
1	50942	1569020.706681552959	0.875
1	51949	1601020	1
1	51952	1601020.2	0.875
1	51957	1601020.507550940481	0.75
1	51962	1601020.809289434051	0.75
1	52979	1633020.1	0.875
1	52983	1633020.302705051794	0.875
1	52987	1633020.503994310851	0.875
1	52992	1633020.805653558537	0.75
1	54026	1665020.1	0.875
1	54029	1665020.3	0.875
1	54035	1665020.610954562173	0.75
1	54039	1665020.81459780942	0.875
1	55057	1697020.2	0.75
1	55061	1697020.5	0.75
1	55066	1697020.809076491033	0.75
1	55072	1697021.01973504951	0.875
1	56080	1729020.1	0.875
1	56084	1729020.4	0.75
1	56089	1729020.702166752731	0.75
1	56095	1729020.911913366845	0.875
1	57147	1761020.2	0.75
1	57150	1761020.4	0.875
1	57154	1761020.604654051857	0.875
1	57163	1761020.84030845202	0.875
1	58186	1793020.2	0.75
1	58190	1793020.409823142087	0.875
1	58196	1793020.721446862222	0.75
1	58201	1793020.931825505344	0.875
1	59269	1825020.3	0.625
1	59275	1825020.603299882273	0.75
1	59280	1825020.813757938803	0.875
1	59288	1825021.139056203668	0.75
1	60302	1857020.3	0.625
1	60305	1857020.5	0.875
1	60309	1857020.7000220022	0.875
1	60313	1857020.908757490948	0.875
1	61405	1889020.1	0.875
1	61408	1889020.3	0.875
1	61414	1889020.605034960945	0.75
1	61423	1889020.84065934139	0.875
1	62483	1921020.2	0.75
1	62486	1921020.4	0.875
1	62490	1921020.605751241792	0.875
1	62494	1921020.811503992622	0.875
1	63530	1953020.2	0.75
1	63535	1953020.504320753724	0.75
1	63540	1953020.72155657621	0.875
1	63544	1953020.922828129172	0.875
1	64574	1985020.1	0.875
1	64578	1985020.305908321959	0.875
1	64583	1985020.608831237644	0.75
1	64589	1985020.823828599708	0.875
1	65598	2017020.2	0.75
1	65601	2017020.4	0.875
1	65606	2017020.60616557168	0.875
1	65611	2017020.822077251198	0.875
2	31	1020.2	0.2
2	36	1020.509446689186	0.3
2	40	1020.71703284539	0.2
2	44	1020.922251328671	0.2
2	1064	33020.1	0.1
2	1067	33020.3	0.2
2	1080	33020.547274848575	0.2
2	1096	33020.818670322773	0.2
2	2141	65020.1	0.1
2	2145	65020.4	0.3
2	2150	65020.704551688171	0.3
2	2156	65020.925150590031	0.2
2	3206	97020.2	0.2
2	3211	97020.501852323245	0.3
2	3217	97020.814318495059	0.3
2	3231	97021.06801901999	0.2
2	4264	129020.2	0.2
2	4268	129020.405436780541	0.2
2	4272	129020.606919466943	0.2
2	4276	129020.809746463411	0.2
2	5270	161020.3	0.3
2	5274	161020.6	0.3
2	5280	161020.91485094919	0.3
2	5285	161021.127280174557	0.2
2	6332	193020.1	0.1
2	6336	193020.30719620154	0.2
2	6340	193020.513282134577	0.2
2	6344	193020.722946034266	0.2
2	7374	225020.1	0.1
2	7379	225020.405855933816	0.3
2	7383	225020.607333947161	0.2
2	7388	225020.812439370731	0.2
2	8418	257020.2	0.2
2	8421	257020.4	0.2
2	8425	257020.602138353481	0.2
2	8431	257020.913988618293	0.3
2	9468	289020.1	0.1
2	9472	289020.4	0.3
2	9477	289020.70485030537	0.3
2	9481	289020.906878265731	0.2
2	10515	321020.2	0.2
2	10521	321020.509047589925	0.3
2	10525	321020.716621655534	0.2
2	10530	321020.919604837145	0.2
2	11563	353020.2	0.2
2	11567	353020.5	0.3
2	11571	353020.702580592164	0.2
2	11576	353021.004544333638	0.3
2	12614	385020.2	0.2
2	12617	385020.4	0.2
2	12624	385020.620911154831	0.2
2	12628	385020.825498383653	0.2
2	13670	417020.2	0.2
2	13674	417020.5	0.3
2	13678	417020.708565674663	0.2
2	13682	417020.912458545383	0.2
2	14704	449020.2	0.2
2	14707	449020.4	0.2
2	14711	449020.604352661538	0.2
2	14716	449020.820858383591	0.2
2	15712	481020.2	0.2
2	15717	481020.6	0.4
2	15721	481020.807890378953	0.2
2	15727	481021.110312001517	0.3
2	16754	513020	0
2	16757	513020.2	0.2
2	16761	513020.405494185823	0.2
2	16767	513020.722255423177	0.3
2	17841	545020.2	0.2
2	17844	545020.4	0.2
2	17849	545020.700942880967	0.3
2	17855	545021.011029987885	0.3
2	18879	577020.2	0.2
2	18884	577020.504281986509	0.3
2	18889	577020.813939241216	0.3
2	18895	577021.132450877088	0.3
2	19937	609020.2	0.2
2	19940	609020.4	0.2
2	19946	609020.710571865021	0.3
2	19952	609020.937521352651	0.2
2	20995	641020.2	0.2
2	21000	641020.508537008969	0.3
2	21004	641020.713802851549	0.2
2	21011	641020.944332155724	0.2
2	22045	673020.2	0.2
2	22049	673020.405006920984	0.2
2	22053	673020.614587829716	0.2
2	22059	673020.920202834631	0.3
2	23060	705020.1	0.1
2	23066	705020.418130586868	0.3
2	23073	705020.725395521635	0.3
2	23078	705021.025539013128	0.3
2	24069	737020.1	0.1
2	24074	737020.405929463149	0.3
2	24078	737020.614136714562	0.2
2	24084	737020.82762296327	0.2
2	25110	769020	0
2	25114	769020.3	0.3
2	25118	769020.509640511693	0.2
2	25123	769020.722931921984	0.2
2	26161	801020.1	0.1
2	26164	801020.3	0.2
2	26170	801020.516850771872	0.2
2	26174	801020.721702368218	0.2
2	27204	833020.2	0.2
2	27207	833020.4	0.2
2	27211	833020.60035551995	0.2
2	27216	833020.811155646272	0.2
2	28236	865020.2	0.2
2	28240	865020.5	0.3
2	28246	865020.809356189511	0.3
2	28252	865021.02220408316	0.2
2	29254	897020.3	0.3
2	29258	897020.6	0.3
2	29263	897020.903636604449	0.3
2	29268	897021.105933704284	0.2
2	30259	929020.2	0.2
2	30262	929020.4	0.2
2	30266	929020.607256245354	0.2
2	30270	929020.815378099374	0.2
2	31285	961020	0
2	31288	961020.2	0.2
2	31292	961020.402319140431	0.2
2	31296	961020.612302572346	0.2
2	32293	993020.3	0.3
2	32296	993020.5	0.2
2	32300	993020.700173427516	0.2
2	32305	993020.901082790518	0.2
2	33320	1025020.1	0.1
2	33323	1025020.3	0.2
2	33327	1025020.501453336589	0.2
2	33332	1025020.80970976653	0.3
2	34346	1057020.2	0.2
2	34351	1057020.6	0.4
2	34355	1057020.802265455338	0.2
2	34362	1057021.022844801925	0.2
2	35359	1089020.1	0.1
2	35366	1089020.414920835224	0.3
2	35371	1089020.718396668833	0.3
2	35375	1089020.92141119527	0.2
2	36401	1121020.2	0.2
2	36405	1121020.5	0.3
2	36410	1121020.711455653279	0.2
2	36415	1121020.920770383736	0.2
2	37422	1153020.2	0.2
2	37425	1153020.4	0.2
2	37433	1153020.724464656795	0.3
2	37442	1153020.956712575666	0.2
2	38476	1185020.2	0.2
2	38479	1185020.4	0.2
2	38485	1185020.610531197239	0.2
2	38493	1185020.845570533127	0.2
2	39514	1217020.2	0.2
2	39518	1217020.5	0.3
2	39523	1217020.807430228914	0.3
2	39539	1217021.063305455085	0.2
2	40546	1249020.1	0.1
2	40550	1249020.300915105312	0.2
2	40557	1249020.625027227618	0.3
2	40562	1249020.837430882213	0.2
2	41604	1281020.2	0.2
2	41607	1281020.4	0.2
2	41615	1281020.716270282026	0.3
2	41621	1281020.934084459339	0.2
2	42633	1313020.1	0.1
2	42636	1313020.3	0.2
2	42642	1313020.609423210052	0.3
2	42651	1313020.935383633479	0.3
2	43699	1345020.2	0.2
2	43704	1345020.502347404337	0.3
2	43709	1345020.804209626826	0.3
2	43713	1345021.008212898568	0.2
2	44725	1377020.1	0.1
2	44728	1377020.3	0.2
2	44732	1377020.508185961467	0.2
2	44736	1377020.714835636426	0.2
2	45777	1409020.1	0.1
2	45781	1409020.4	0.3
2	45785	1409020.608708372586	0.2
2	45789	1409020.81135962489	0.2
2	46812	1441020.2	0.2
2	46817	1441020.6	0.4
2	46822	1441020.900263385579	0.3
2	46828	1441021.21520168515	0.3
2	47841	1473020.1	0.1
2	47848	1473020.412792223041	0.3
2	47855	1473020.722930118811	0.3
2	47860	1473020.939043394437	0.2
2	48866	1505020.1	0.1
2	48869	1505020.3	0.2
2	48873	1505020.502079598593	0.2
2	48877	1505020.708736745935	0.2
2	49875	1537020.2	0.2
2	49880	1537020.508290158153	0.3
2	49886	1537020.729493491652	0.2
2	49896	1537020.968140506952	0.2
2	50930	1569020	0
2	50933	1569020.2	0.2
2	50938	1569020.500180587647	0.3
2	50942	1569020.706681552959	0.2
2	51949	1601020	0
2	51952	1601020.2	0.2
2	51957	1601020.507550940481	0.3
2	51962	1601020.809289434051	0.3
2	52979	1633020.1	0.1
2	52983	1633020.302705051794	0.2
2	52987	1633020.503994310851	0.2
2	52992	1633020.805653558537	0.3
2	54026	1665020.1	0.1
2	54029	1665020.3	0.2
2	54035	1665020.610954562173	0.3
2	54039	1665020.81459780942	0.2
2	55057	1697020.2	0.2
2	55061	1697020.5	0.3
2	55066	1697020.809076491033	0.3
2	55072	1697021.01973504951	0.2
2	56080	1729020.1	0.1
2	56084	1729020.4	0.3
2	56089	1729020.702166752731	0.3
2	56095	1729020.911913366845	0.2
2	57147	1761020.2	0.2
2	57150	1761020.4	0.2
2	57154	1761020.604654051857	0.2
2	57163	1761020.84030845202	0.2
2	58186	1793020.2	0.2
2	58190	1793020.409823142087	0.2
2	58196	1793020.721446862222	0.3
2	58201	1793020.931825505344	0.2
2	59269	1825020.3	0.3
2	59275	1825020.603299882273	0.3
2	59280	1825020.813757938803	0.2
2	59288	1825021.139056203668	0.3
2	60302	1857020.3	0.3
2	60305	1857020.5	0.2
2	60309	1857020.7000220022	0.2
2	60313	1857020.908757490948	0.2
2	61405	1889020.1	0.1
2	61408	1889020.3	0.2
2	61414	1889020.605034960945	0.3
2	61423	1889020.84065934139	0.2
2	62483	1921020.2	0.2
2	62486	1921020.4	0.2
2	62490	1921020.605751241792	0.2
2	62494	1921020.811503992622	0.2
2	63530	1953020.2	0.2
2	63535	1953020.504320753724	0.3
2	63540	1953020.72155657621	0.2
2	63544	1953020.922828129172	0.2
2	64574	1985020.1	0.1
2	64578	1985020.305908321959	0.2
2	64583	1985020.608831237644	0.3
2	64589	1985020.823828599708	0.2
2	65598	2017020.2	0.2
2	65601	2017020.4	0.2
2	65606	2017020.60616557168	0.2
2	65611	2017020.822077251198	0.2
3	61	2020.1	1
3	65	2020.4	2
3	69	2020.604736004227	1
3	74	2020.907381560341	2
3	1114	34020.2	2
3	1118	34020.5	2
3	1122	34020.700375593844	1
3	1130	34020.916145948336	1
3	2174	66020.2	2
3	2178	66020.5	2
3	2183	66020.807155611524	2
3	2192	66021.047123475779	1
3	3248	98020.1	1
3	3252	98020.4	2
3	3256	98020.602327441321	1
3	3260	98020.804699174225	1
3	4293	130020.1	1
3	4297	130020.30635056795	1
3	4301	130020.513453936231	1
3	4307	130020.816529212212	2
3	5304	162020.3	3
3	5308	162020.6	2
3	5316	162020.925332293465	2
3	5321	162021.131409568856	1
3	6362	194020.2	2
3	6366	194020.408026921376	1
3	6370	194020.61103095817	1
3	6374	194020.819394598466	1
3	7406	226020.2	2
3	7410	226020.5	2
3	7414	226020.706378557526	1
3	7419	226020.918904915485	1
3	8448	258020.1	1
3	8451	258020.3	1
3	8456	258020.503548851588	1
3	8462	258020.714947667667	1
3	9498	290020.1	1
3	9502	290020.30208683327	1
3	9507	290020.605664412131	2
3	9511	290020.809417916441	1
3	10548	322020.2	2
3	10551	322020.4	1
3	10555	322020.600375343533	1
3	10569	322020.837464351196	1
3	11593	354020.1	1
3	11596	354020.3	1
3	11600	354020.5070318902	1
3	11604	354020.707873671014	1
3	12646	386020.2	2
3	12650	386020.5	2
3	12654	386020.70789015324	1
3	12659	386020.918609405077	1
3	13698	418020	0
3	13703	418020.212144933914	1
3	13710	418020.535038274574	2
3	13714	418020.735329083088	1
3	14733	450020.1	1
3	14736	450020.3	1
3	14740	450020.508996517057	1
3	14744	450020.715116214684	1
3	15745	482020.2	2
3	15748	482020.4	1
3	15754	482020.621546609328	1
3	15759	482020.830928915087	1
3	16786	514020.3	3
3	16790	514020.6	2
3	16794	514020.8022742389	1
3	16800	514021.109127123376	2
3	17873	546020.2	2
3	17877	546020.5	2
3	17881	546020.706019436963	1
3	17885	546020.911466035232	1
3	18913	578020.2	2
3	18917	578020.400334072906	1
3	18921	578020.609468398973	1
3	18929	578020.930836763704	2
3	19969	610020.1	1
3	19973	610020.4	2
3	19978	610020.704564726469	2
3	19983	610020.914654782788	1
3	21028	642020.1	1
3	21031	642020.3	1
3	21036	642020.512962077957	1
3	21042	642020.823908071956	2
3	22075	674020	0
3	22083	674020.319220262093	2
3	22087	674020.528239498413	1
3	22093	674020.844833616685	2
3	23096	706020.2	2
3	23099	706020.4	1
3	23103	706020.608814126183	1
3	23107	706020.818772426207	1
3	24101	738020.1	1
3	24106	738020.409971796101	2
3	24113	738020.725663081228	2
3	24118	738020.93952995317	1
3	25139	770020	0
3	25143	770020.205072551274	1
3	25149	770020.512669098097	2
3	25165	770020.773434940499	1
3	26191	802020.1	1
3	26195	802020.4	2
3	26199	802020.609470034074	1
3	26203	802020.809811133092	1
3	27234	834020.2	2
3	27237	834020.4	1
3	27241	834020.605505789155	1
3	27246	834020.814816778364	1
3	28269	866020.1	1
3	28273	866020.302738391431	1
3	28280	866020.610091170276	2
3	28284	866020.810108990458	1