version 2
run Stability-18-20130526-18:48:37-1898
attr configname Stability
attr datetime 20130526-18:48:37
attr experiment Stability
attr inifile omnetpp.ini
attr iterationvars $0=1e5
attr iterationvars2 "$0=1e5, $repetition=8"
attr measurement $0=1e5
attr network Network
attr processid 1898
attr repetition 8
attr replication #8
attr resultdir results
attr runnumber 18
attr seedset 18

vector 1842  Network.churner  inGoingSizeSig:vector  ETV
vector 1746  Network.dyn_peer[0]  lookupHopsSig:vector  ETV
vector 1747  Network.dyn_peer[0]  lookupStabilitySig:vector  ETV
vector 1748  Network.dyn_peer[0]  lookupTimeSig:vector  ETV
vector 1749  Network.dyn_peer[1]  lookupHopsSig:vector  ETV
vector 1750  Network.dyn_peer[1]  lookupStabilitySig:vector  ETV
vector 1751  Network.dyn_peer[1]  lookupTimeSig:vector  ETV
vector 1752  Network.dyn_peer[2]  lookupHopsSig:vector  ETV
vector 1753  Network.dyn_peer[2]  lookupStabilitySig:vector  ETV
vector 1754  Network.dyn_peer[2]  lookupTimeSig:vector  ETV
vector 1755  Network.dyn_peer[3]  lookupHopsSig:vector  ETV
vector 1756  Network.dyn_peer[3]  lookupStabilitySig:vector  ETV
vector 1757  Network.dyn_peer[3]  lookupTimeSig:vector  ETV
vector 1758  Network.dyn_peer[4]  lookupHopsSig:vector  ETV
vector 1759  Network.dyn_peer[4]  lookupStabilitySig:vector  ETV
vector 1760  Network.dyn_peer[4]  lookupTimeSig:vector  ETV
vector 1761  Network.dyn_peer[5]  lookupHopsSig:vector  ETV
vector 1762  Network.dyn_peer[5]  lookupStabilitySig:vector  ETV
vector 1763  Network.dyn_peer[5]  lookupTimeSig:vector  ETV
vector 1764  Network.dyn_peer[6]  lookupHopsSig:vector  ETV
vector 1765  Network.dyn_peer[6]  lookupStabilitySig:vector  ETV
vector 1766  Network.dyn_peer[6]  lookupTimeSig:vector  ETV
vector 1767  Network.dyn_peer[7]  lookupHopsSig:vector  ETV
vector 1768  Network.dyn_peer[7]  lookupStabilitySig:vector  ETV
vector 1769  Network.dyn_peer[7]  lookupTimeSig:vector  ETV
vector 1770  Network.dyn_peer[8]  lookupHopsSig:vector  ETV
vector 1771  Network.dyn_peer[8]  lookupStabilitySig:vector  ETV
vector 1772  Network.dyn_peer[8]  lookupTimeSig:vector  ETV
vector 1773  Network.dyn_peer[9]  lookupHopsSig:vector  ETV
vector 1774  Network.dyn_peer[9]  lookupStabilitySig:vector  ETV
vector 1775  Network.dyn_peer[9]  lookupTimeSig:vector  ETV
vector 1776  Network.dyn_peer[10]  lookupHopsSig:vector  ETV
vector 1777  Network.dyn_peer[10]  lookupStabilitySig:vector  ETV
vector 1778  Network.dyn_peer[10]  lookupTimeSig:vector  ETV
vector 1779  Network.dyn_peer[11]  lookupHopsSig:vector  ETV
vector 1780  Network.dyn_peer[11]  lookupStabilitySig:vector  ETV
vector 1781  Network.dyn_peer[11]  lookupTimeSig:vector  ETV
vector 1782  Network.dyn_peer[12]  lookupHopsSig:vector  ETV
vector 1783  Network.dyn_peer[12]  lookupStabilitySig:vector  ETV
vector 1784  Network.dyn_peer[12]  lookupTimeSig:vector  ETV
vector 1785  Network.dyn_peer[13]  lookupHopsSig:vector  ETV
vector 1786  Network.dyn_peer[13]  lookupStabilitySig:vector  ETV
vector 1787  Network.dyn_peer[13]  lookupTimeSig:vector  ETV
vector 1788  Network.dyn_peer[14]  lookupHopsSig:vector  ETV
vector 1789  Network.dyn_peer[14]  lookupStabilitySig:vector  ETV
vector 1790  Network.dyn_peer[14]  lookupTimeSig:vector  ETV
vector 1791  Network.dyn_peer[15]  lookupHopsSig:vector  ETV
vector 1792  Network.dyn_peer[15]  lookupStabilitySig:vector  ETV
vector 1793  Network.dyn_peer[15]  lookupTimeSig:vector  ETV
vector 1794  Network.dyn_peer[16]  lookupHopsSig:vector  ETV
vector 1795  Network.dyn_peer[16]  lookupStabilitySig:vector  ETV
vector 1796  Network.dyn_peer[16]  lookupTimeSig:vector  ETV
vector 1797  Network.dyn_peer[17]  lookupHopsSig:vector  ETV
vector 1798  Network.dyn_peer[17]  lookupStabilitySig:vector  ETV
vector 1799  Network.dyn_peer[17]  lookupTimeSig:vector  ETV
vector 1800  Network.dyn_peer[18]  lookupHopsSig:vector  ETV
vector 1801  Network.dyn_peer[18]  lookupStabilitySig:vector  ETV
vector 1802  Network.dyn_peer[18]  lookupTimeSig:vector  ETV
vector 1803  Network.dyn_peer[19]  lookupHopsSig:vector  ETV
vector 1804  Network.dyn_peer[19]  lookupStabilitySig:vector  ETV
vector 1805  Network.dyn_peer[19]  lookupTimeSig:vector  ETV
vector 1806  Network.dyn_peer[20]  lookupHopsSig:vector  ETV
vector 1807  Network.dyn_peer[20]  lookupStabilitySig:vector  ETV
vector 1808  Network.dyn_peer[20]  lookupTimeSig:vector  ETV
vector 1809  Network.dyn_peer[21]  lookupHopsSig:vector  ETV
vector 1810  Network.dyn_peer[21]  lookupStabilitySig:vector  ETV
vector 1811  Network.dyn_peer[21]  lookupTimeSig:vector  ETV
vector 1812  Network.dyn_peer[22]  lookupHopsSig:vector  ETV
vector 1813  Network.dyn_peer[22]  lookupStabilitySig:vector  ETV
vector 1814  Network.dyn_peer[22]  lookupTimeSig:vector  ETV
vector 1815  Network.dyn_peer[23]  lookupHopsSig:vector  ETV
vector 1816  Network.dyn_peer[23]  lookupStabilitySig:vector  ETV
vector 1817  Network.dyn_peer[23]  lookupTimeSig:vector  ETV
vector 1818  Network.dyn_peer[24]  lookupHopsSig:vector  ETV
vector 1819  Network.dyn_peer[24]  lookupStabilitySig:vector  ETV
vector 1820  Network.dyn_peer[24]  lookupTimeSig:vector  ETV
vector 1821  Network.dyn_peer[25]  lookupHopsSig:vector  ETV
vector 1822  Network.dyn_peer[25]  lookupStabilitySig:vector  ETV
vector 1823  Network.dyn_peer[25]  lookupTimeSig:vector  ETV
vector 1824  Network.dyn_peer[26]  lookupHopsSig:vector  ETV
vector 1825  Network.dyn_peer[26]  lookupStabilitySig:vector  ETV
vector 1826  Network.dyn_peer[26]  lookupTimeSig:vector  ETV
vector 1827  Network.dyn_peer[27]  lookupHopsSig:vector  ETV
vector 1828  Network.dyn_peer[27]  lookupStabilitySig:vector  ETV
vector 1829  Network.dyn_peer[27]  lookupTimeSig:vector  ETV
vector 1830  Network.dyn_peer[28]  lookupHopsSig:vector  ETV
vector 1831  Network.dyn_peer[28]  lookupStabilitySig:vector  ETV
vector 1832  Network.dyn_peer[28]  lookupTimeSig:vector  ETV
vector 1833  Network.dyn_peer[29]  lookupHopsSig:vector  ETV
vector 1834  Network.dyn_peer[29]  lookupStabilitySig:vector  ETV
vector 1835  Network.dyn_peer[29]  lookupTimeSig:vector  ETV
vector 1836  Network.dyn_peer[30]  lookupHopsSig:vector  ETV
vector 1837  Network.dyn_peer[30]  lookupStabilitySig:vector  ETV
vector 1838  Network.dyn_peer[30]  lookupTimeSig:vector  ETV
vector 1839  Network.dyn_peer[31]  lookupHopsSig:vector  ETV
vector 1840  Network.dyn_peer[31]  lookupStabilitySig:vector  ETV
vector 1841  Network.dyn_peer[31]  lookupTimeSig:vector  ETV
1746	30	120.1	1
1746	34	120.4	2
1746	38	120.606666003491	1
1746	44	120.816069416136	1
1746	1090	3320.1	1
1746	1095	3320.403968565212	2
1746	1102	3320.637491283242	1
1746	1111	3320.872490427288	1
1746	2159	6520.1	1
1746	2162	6520.3	1
1746	2166	6520.501792757895	1
1746	2171	6520.710869174804	1
1746	3179	9720.1	1
1746	3183	9720.4	2
1746	3188	9720.709894391223	2
1746	3192	9720.91548200854	1
1746	4206	12920.1	1
1746	4210	12920.4	2
1746	4215	12920.70620683161	2
1746	4220	12920.918746571185	1
1746	5240	16120.2	2
1746	5245	16120.406141191629	1
1746	5250	16120.710519143958	2
1746	5254	16120.915832755181	1
1746	6274	19320.2	2
1746	6278	19320.5	2
1746	6283	19320.708021665562	1
1746	6287	19320.910700961479	1
1746	7310	22520.1	1
1746	7316	22520.317720118671	1
1746	7320	22520.520769477585	1
1746	7326	22520.736443610896	1
1746	8341	25720.1	1
1746	8344	25720.3	1
1746	8348	25720.500035476954	1
1746	8353	25720.71645580458	1
1746	9413	28920.2	2
1746	9418	28920.6	3
1746	9422	28920.801247639928	1
1746	9429	28921.01700548606	1
1746	10447	32120.2	2
1746	10450	32120.4	1
1746	10454	32120.600379249006	1
1746	10459	32120.906926664569	2
1746	11450	35320.1	1
1746	11453	35320.3	1
1746	11457	35320.503910424443	1
1746	11462	35320.811852360595	2
1746	12499	38520.1	1
1746	12504	38520.403743321353	2
1746	12513	38520.635732720676	1
1746	12517	38520.841371226741	1
1746	13539	41720.2	2
1746	13543	41720.5	2
1746	13547	41720.7099489086	1
1746	13554	41721.019029531493	2
1746	14576	44920.2	2
1746	14581	44920.6	3
1746	14587	44920.911270558546	2
1746	14591	44921.11502995861	1
1746	15601	48120.2	2
1746	15605	48120.5	2
1746	15610	48120.716417975767	1
1746	15616	48120.937894106922	1
1746	16621	51320.2	2
1746	16625	51320.5	2
1746	16629	51320.704472053856	1
1746	16633	51320.911748764435	1
1746	17669	54520.2	2
1746	17672	54520.4	1
1746	17677	54520.701262408704	2
1746	17682	54520.911986829202	1
1746	18717	57720.1	1
1746	18721	57720.4	2
1746	18727	57720.611797986835	1
1746	18731	57720.815515173914	1
1746	19769	60920.2	2
1746	19773	60920.403683754496	1
1746	19778	60920.709578135885	2
1746	19784	60921.021377252037	2
1746	20805	64120.2	2
1746	20809	64120.5	2
1746	20813	64120.707777968109	1
1746	20819	64121.011992073349	2
1746	21842	67320.2	2
1746	21845	67320.4	1
1746	21852	67320.619429524974	1
1746	21860	67320.929923338644	2
1746	22879	70520.1	1
1746	22882	70520.3	1
1746	22886	70520.5097608803	1
1746	22893	70520.825957935402	2
1746	23908	73720.2	2
1746	23912	73720.403195024619	1
1746	23916	73720.60926623779	1
1746	23930	73720.863576323411	1
1746	24956	76920.1	1
1746	24960	76920.4	2
1746	24965	76920.706402168737	2
1746	24972	76920.926097550013	1
1746	25979	80120.2	2
1746	25983	80120.5	2
1746	25988	80120.718434160946	1
1746	26001	80120.971901318022	1
1746	27023	83320.1	1
1746	27026	83320.3	1
1746	27031	83320.510981004093	1
1746	27036	83320.717167747913	1
1746	28056	86520.1	1
1746	28060	86520.4	2
1746	28064	86520.607044495067	1
1746	28068	86520.815805344048	1
1746	29104	89720.2	2
1746	29107	89720.4	1
1746	29112	89720.708440747656	2
1746	29125	89720.952308318756	1
1746	30167	92920.2	2
1746	30172	92920.504534474683	2
1746	30176	92920.708678583958	1
1746	30182	92920.918410848272	1
1746	31234	96120.2	2
1746	31238	96120.5	2
1746	31243	96120.803901777984	2
1746	31248	96121.014574214563	1
1746	32245	99320.1	1
1746	32252	99320.419652319858	2
1746	32257	99320.627446272401	1
1746	32261	99320.836865911884	1
1746	33303	102520.1	1
1746	33306	102520.3	1
1746	33314	102520.519815751552	1
1746	33329	102520.786951954935	1
1746	34338	105720	0
1746	34342	105720.3	2
1746	34348	105720.617159254031	2
1746	34353	105720.828838989826	1
1746	35383	108920.2	2
1746	35387	108920.5	2
1746	35393	108920.816680264742	2
1746	35397	108921.022232499282	1
1746	36424	112120.1	1
1746	36428	112120.4	2
1746	36432	112120.607978299015	1
1746	36437	112120.912427733123	2
1746	37477	115320.2	2
1746	37480	115320.4	1
1746	37485	115320.709851923906	2
1746	37489	115320.916596787278	1
1746	38529	118520.1	1
1746	38533	118520.4	2
1746	38537	118520.60269923561	1
1746	38544	118520.819249908982	1
1746	39584	121720.1	1
1746	39588	121720.300225953322	1
1746	39595	121720.613026926222	2
1746	39599	121720.814543366553	1
1746	40587	124920.1	1
1746	40591	124920.301572501754	1
1746	40598	124920.522318332767	1
1746	40603	124920.731010578298	1
1746	41626	128120.1	1
1746	41631	128120.303165870138	1
1746	41636	128120.510104810002	1
1746	41642	128120.816851903933	2
1746	42702	131320.2	2
1746	42705	131320.4	1
1746	42710	131320.609274886135	1
1746	42715	131320.913801527822	2
1746	43740	134520.1	1
1746	43744	134520.306882269803	1
1746	43749	134520.611749544554	2
1746	43754	134520.818720601617	1
1746	44772	137720.1	1
1746	44775	137720.3	1
1746	44785	137720.526100459164	1
1746	44793	137720.834917632181	2
1746	45810	140920.2	2
1746	45814	140920.5	2
1746	45819	140920.716669005425	1
1746	45824	140921.02395964289	2
1746	46838	144120.2	2
1746	46841	144120.4	1
1746	46846	144120.615068365209	1
1746	46851	144120.924902376273	2
1746	47851	147320.2	2
1746	47856	147320.509706732493	2
1746	47861	147320.816608994812	2
1746	47883	147321.116681288938	1
1746	48901	150520.2	2
1746	48905	150520.5	2
1746	48911	150520.804742495151	2
1746	48915	150521.009607861539	1
1746	49934	153720.1	1
1746	49937	153720.3	1
1746	49942	153720.600092873892	2
1746	49946	153720.810025784373	1
1746	50984	156920.1	1
1746	50987	156920.3	1
1746	50992	156920.514041066293	1
1746	50999	156920.736406066302	1
1746	52031	160120.1	1
1746	52035	160120.4	2
1746	52039	160120.608334208843	1
1746	52043	160120.813204720019	1
1746	53027	163320.2	2
1746	53030	163320.4	1
1746	53035	163320.703314470511	2
1746	53040	163320.913264406395	1
1746	54069	166520.2	2
1746	54072	166520.4	1
1746	54077	166520.706291013802	2
1746	54082	166521.006948064721	2
1746	55123	169720.1	1
1746	55126	169720.3	1
1746	55130	169720.508842266357	1
1746	55140	169720.846942499831	2
1746	56122	172920.1	1
1746	56125	172920.3	1
1746	56129	172920.507364263378	1
1746	56133	172920.708943418713	1
1746	57152	176120.2	2
1746	57157	176120.501315736786	2
1746	57162	176120.802430791888	2
1746	57166	176121.00267106687	1
1746	58186	179320.1	1
1746	58189	179320.3	1
1746	58194	179320.603149265416	2
1746	58199	179320.815205053392	1
1746	59252	182520.2	2
1746	59255	182520.4	1
1746	59259	182520.608294243714	1
1746	59263	182520.817283239051	1
1746	60298	185720.1	1
1746	60302	185720.4	2
1746	60306	185720.606968996534	1
1746	60316	185720.931705337703	2
1746	61328	188920	0
1746	61334	188920.207294826681	1
1746	61340	188920.421657093949	1
1746	61345	188920.626615638447	1
1746	62362	192120.1	1
1746	62366	192120.4	2
1746	62370	192120.601630814904	1
1746	62378	192120.824799255411	1
1746	63411	195320.2	2
1746	63414	195320.4	1
1746	63420	195320.705483119059	2
1746	63424	195320.913213345729	1
1746	64476	198520.2	2
1746	64480	198520.5	2
1746	64484	198520.709976790728	1
1746	64489	198520.914468346481	1
1746	65514	201720.2	2
1746	65517	201720.4	1
1746	65522	201720.702796524474	2
1746	65529	201720.91863584232	1
1747	30	120.1	0.875
1747	34	120.4	0.75
1747	38	120.606666003491	0.875
1747	44	120.816069416136	0.875
1747	1090	3320.1	0.875
1747	1095	3320.403968565212	0.75
1747	1102	3320.637491283242	0.875
1747	1111	3320.872490427288	0.875
1747	2159	6520.1	0.875
1747	2162	6520.3	0.875
1747	2166	6520.501792757895	0.875
1747	2171	6520.710869174804	0.875
1747	3179	9720.1	0.875
1747	3183	9720.4	0.75
1747	3188	9720.709894391223	0.75
1747	3192	9720.91548200854	0.875
1747	4206	12920.1	0.875
1747	4210	12920.4	0.75
1747	4215	12920.70620683161	0.75
1747	4220	12920.918746571185	0.875
1747	5240	16120.2	0.75
1747	5245	16120.406141191629	0.875
1747	5250	16120.710519143958	0.75
1747	5254	16120.915832755181	0.875
1747	6274	19320.2	0.75
1747	6278	19320.5	0.75
1747	6283	19320.708021665562	0.875
1747	6287	19320.910700961479	0.875
1747	7310	22520.1	0.875
1747	7316	22520.317720118671	0.875
1747	7320	22520.520769477585	0.875
1747	7326	22520.736443610896	0.875
1747	8341	25720.1	0.875
1747	8344	25720.3	0.875
1747	8348	25720.500035476954	0.875
1747	8353	25720.71645580458	0.875
1747	9413	28920.2	0.75
1747	9418	28920.6	0.625
1747	9422	28920.801247639928	0.875
1747	9429	28921.01700548606	0.875
1747	10447	32120.2	0.75
1747	10450	32120.4	0.875
1747	10454	32120.600379249006	0.875
1747	10459	32120.906926664569	0.75
1747	11450	35320.1	0.875
1747	11453	35320.3	0.875
1747	11457	35320.503910424443	0.875
1747	11462	35320.811852360595	0.75
1747	12499	38520.1	0.875
1747	12504	38520.403743321353	0.75
1747	12513	38520.635732720676	0.875
1747	12517	38520.841371226741	0.875
1747	13539	41720.2	0.75
1747	13543	41720.5	0.75
1747	13547	41720.7099489086	0.875
1747	13554	41721.019029531493	0.75
1747	14576	44920.2	0.75
1747	14581	44920.6	0.625
1747	14587	44920.911270558546	0.75
1747	14591	44921.11502995861	0.875
1747	15601	48120.2	0.75
1747	15605	48120.5	0.75
1747	15610	48120.716417975767	0.875
1747	15616	48120.937894106922	0.875
1747	16621	51320.2	0.75
1747	16625	51320.5	0.75
1747	16629	51320.704472053856	0.875
1747	16633	51320.911748764435	0.875
1747	17669	54520.2	0.75
1747	17672	54520.4	0.875
1747	17677	54520.701262408704	0.75
1747	17682	54520.911986829202	0.875
1747	18717	57720.1	0.875
1747	18721	57720.4	0.75
1747	18727	57720.611797986835	0.875
1747	18731	57720.815515173914	0.875
1747	19769	60920.2	0.75
1747	19773	60920.403683754496	0.875
1747	19778	60920.709578135885	0.75
1747	19784	60921.021377252037	0.75
1747	20805	64120.2	0.75
1747	20809	64120.5	0.75
1747	20813	64120.707777968109	0.875
1747	20819	64121.011992073349	0.75
1747	21842	67320.2	0.75
1747	21845	67320.4	0.875
1747	21852	67320.619429524974	0.875
1747	21860	67320.929923338644	0.75
1747	22879	70520.1	0.875
1747	22882	70520.3	0.875
1747	22886	70520.5097608803	0.875
1747	22893	70520.825957935402	0.75
1747	23908	73720.2	0.75
1747	23912	73720.403195024619	0.875
1747	23916	73720.60926623779	0.875
1747	23930	73720.863576323411	0.875
1747	24956	76920.1	0.875
1747	24960	76920.4	0.75
1747	24965	76920.706402168737	0.75
1747	24972	76920.926097550013	0.875
1747	25979	80120.2	0.75
1747	25983	80120.5	0.75
1747	25988	80120.718434160946	0.875
1747	26001	80120.971901318022	0.875
1747	27023	83320.1	0.875
1747	27026	83320.3	0.875
1747	27031	83320.510981004093	0.875
1747	27036	83320.717167747913	0.875
1747	28056	86520.1	0.875
1747	28060	86520.4	0.75
1747	28064	86520.607044495067	0.875
1747	28068	86520.815805344048	0.875
1747	29104	89720.2	0.75
1747	29107	89720.4	0.875
1747	29112	89720.708440747656	0.75
1747	29125	89720.952308318756	0.875
1747	30167	92920.2	0.75
1747	30172	92920.504534474683	0.75
1747	30176	92920.708678583958	0.875
1747	30182	92920.918410848272	0.875
1747	31234	96120.2	0.75
1747	31238	96120.5	0.75
1747	31243	96120.803901777984	0.75
1747	31248	96121.014574214563	0.875
1747	32245	99320.1	0.875
1747	32252	99320.419652319858	0.75
1747	32257	99320.627446272401	0.875
1747	32261	99320.836865911884	0.875
1747	33303	102520.1	0.875
1747	33306	102520.3	0.875
1747	33314	102520.519815751552	0.875
1747	33329	102520.786951954935	0.875
1747	34338	105720	1
1747	34342	105720.3	0.75
1747	34348	105720.617159254031	0.75
1747	34353	105720.828838989826	0.875
1747	35383	108920.2	0.75
1747	35387	108920.5	0.75
1747	35393	108920.816680264742	0.75
1747	35397	108921.022232499282	0.875
1747	36424	112120.1	0.875
1747	36428	112120.4	0.75
1747	36432	112120.607978299015	0.875
1747	36437	112120.912427733123	0.75
1747	37477	115320.2	0.75
1747	37480	115320.4	0.875
1747	37485	115320.709851923906	0.75
1747	37489	115320.916596787278	0.875
1747	38529	118520.1	0.875
1747	38533	118520.4	0.75
1747	38537	118520.60269923561	0.875
1747	38544	118520.819249908982	0.875
1747	39584	121720.1	0.875
1747	39588	121720.300225953322	0.875
1747	39595	121720.613026926222	0.75
1747	39599	121720.814543366553	0.875
1747	40587	124920.1	0.875
1747	40591	124920.301572501754	0.875
1747	40598	124920.522318332767	0.875
1747	40603	124920.731010578298	0.875
1747	41626	128120.1	0.875
1747	41631	128120.303165870138	0.875
1747	41636	128120.510104810002	0.875
1747	41642	128120.816851903933	0.75
1747	42702	131320.2	0.75
1747	42705	131320.4	0.875
1747	42710	131320.609274886135	0.875
1747	42715	131320.913801527822	0.75
1747	43740	134520.1	0.875
1747	43744	134520.306882269803	0.875
1747	43749	134520.611749544554	0.75
1747	43754	134520.818720601617	0.875
1747	44772	137720.1	0.875
1747	44775	137720.3	0.875
1747	44785	137720.526100459164	0.875
1747	44793	137720.834917632181	0.75
1747	45810	140920.2	0.75
1747	45814	140920.5	0.75
1747	45819	140920.716669005425	0.875
1747	45824	140921.02395964289	0.75
1747	46838	144120.2	0.75
1747	46841	144120.4	0.875
1747	46846	144120.615068365209	0.875
1747	46851	144120.924902376273	0.75
1747	47851	147320.2	0.75
1747	47856	147320.509706732493	0.75
1747	47861	147320.816608994812	0.75
1747	47883	147321.116681288938	0.875
1747	48901	150520.2	0.75
1747	48905	150520.5	0.75
1747	48911	150520.804742495151	0.75
1747	48915	150521.009607861539	0.875
1747	49934	153720.1	0.875
1747	49937	153720.3	0.875
1747	49942	153720.600092873892	0.75
1747	49946	153720.810025784373	0.875
1747	50984	156920.1	0.875
1747	50987	156920.3	0.875
1747	50992	156920.514041066293	0.875
1747	50999	156920.736406066302	0.875
1747	52031	160120.1	0.875
1747	52035	160120.4	0.75
1747	52039	160120.608334208843	0.875
1747	52043	160120.813204720019	0.875
1747	53027	163320.2	0.75
1747	53030	163320.4	0.875
1747	53035	163320.703314470511	0.75
1747	53040	163320.913264406395	0.875
1747	54069	166520.2	0.75
1747	54072	166520.4	0.875
1747	54077	166520.706291013802	0.75
1747	54082	166521.006948064721	0.75
1747	55123	169720.1	0.875
1747	55126	169720.3	0.875
1747	55130	169720.508842266357	0.875
1747	55140	169720.846942499831	0.75
1747	56122	172920.1	0.875
1747	56125	172920.3	0.875
1747	56129	172920.507364263378	0.875
1747	56133	172920.708943418713	0.875
1747	57152	176120.2	0.75
1747	57157	176120.501315736786	0.75
1747	57162	176120.802430791888	0.75
1747	57166	176121.00267106687	0.875
1747	58186	179320.1	0.875
1747	58189	179320.3	0.875
1747	58194	179320.603149265416	0.75
1747	58199	179320.815205053392	0.875
1747	59252	182520.2	0.75
1747	59255	182520.4	0.875
1747	59259	182520.608294243714	0.875
1747	59263	182520.817283239051	0.875
1747	60298	185720.1	0.875
1747	60302	185720.4	0.75
1747	60306	185720.606968996534	0.875
1747	60316	185720.931705337703	0.75
1747	61328	188920	1
1747	61334	188920.207294826681	0.875
1747	61340	188920.421657093949	0.875
1747	61345	188920.626615638447	0.875
1747	62362	192120.1	0.875
1747	62366	192120.4	0.75
1747	62370	192120.601630814904	0.875
1747	62378	192120.824799255411	0.875
1747	63411	195320.2	0.75
1747	63414	195320.4	0.875
1747	63420	195320.705483119059	0.75
1747	63424	195320.913213345729	0.875
1747	64476	198520.2	0.75
1747	64480	198520.5	0.75
1747	64484	198520.709976790728	0.875
1747	64489	198520.914468346481	0.875
1747	65514	201720.2	0.75
1747	65517	201720.4	0.875
1747	65522	201720.702796524474	0.75
1747	65529	201720.91863584232	0.875
1748	30	120.1	0.1
1748	34	120.4	0.3
1748	38	120.606666003491	0.2
1748	44	120.816069416136	0.2
1748	1090	3320.1	0.1
1748	1095	3320.403968565212	0.3
1748	1102	3320.637491283242	0.2
1748	1111	3320.872490427288	0.2
1748	2159	6520.1	0.1
1748	2162	6520.3	0.2
1748	2166	6520.501792757895	0.2
1748	2171	6520.710869174804	0.2
1748	3179	9720.1	0.1
1748	3183	9720.4	0.3
1748	3188	9720.709894391223	0.3
1748	3192	9720.91548200854	0.2
1748	4206	12920.1	0.1
1748	4210	12920.4	0.3
1748	4215	12920.70620683161	0.3
1748	4220	12920.918746571185	0.2
1748	5240	16120.2	0.2
1748	5245	16120.406141191629	0.2
1748	5250	16120.710519143958	0.3
1748	5254	16120.915832755181	0.2
1748	6274	19320.2	0.2
1748	6278	19320.5	0.3
1748	6283	19320.708021665562	0.2
1748	6287	19320.910700961479	0.2
1748	7310	22520.1	0.1
1748	7316	22520.317720118671	0.2
1748	7320	22520.520769477585	0.2
1748	7326	22520.736443610896	0.2
1748	8341	25720.1	0.1
1748	8344	25720.3	0.2
1748	8348	25720.500035476954	0.2
1748	8353	25720.71645580458	0.2
1748	9413	28920.2	0.2
1748	9418	28920.6	0.4
1748	9422	28920.801247639928	0.2
1748	9429	28921.01700548606	0.2
1748	10447	32120.2	0.2
1748	10450	32120.4	0.2
1748	10454	32120.600379249006	0.2
1748	10459	32120.906926664569	0.3
1748	11450	35320.1	0.1
1748	11453	35320.3	0.2
1748	11457	35320.503910424443	0.2
1748	11462	35320.811852360595	0.3
1748	12499	38520.1	0.1
1748	12504	38520.403743321353	0.3
1748	12513	38520.635732720676	0.2
1748	12517	38520.841371226741	0.2
1748	13539	41720.2	0.2
1748	13543	41720.5	0.3
1748	13547	41720.7099489086	0.2
1748	13554	41721.019029531493	0.3
1748	14576	44920.2	0.2
1748	14581	44920.6	0.4
1748	14587	44920.911270558546	0.3
1748	14591	44921.11502995861	0.2
1748	15601	48120.2	0.2
1748	15605	48120.5	0.3
1748	15610	48120.716417975767	0.2
1748	15616	48120.937894106922	0.2
1748	16621	51320.2	0.2
1748	16625	51320.5	0.3
1748	16629	51320.704472053856	0.2
1748	16633	51320.911748764435	0.2
1748	17669	54520.2	0.2
1748	17672	54520.4	0.2
1748	17677	54520.701262408704	0.3
1748	17682	54520.911986829202	0.2
1748	18717	57720.1	0.1
1748	18721	57720.4	0.3
1748	18727	57720.611797986835	0.2
1748	18731	57720.815515173914	0.2
1748	19769	60920.2	0.2
1748	19773	60920.403683754496	0.2
1748	19778	60920.709578135885	0.3
1748	19784	60921.021377252037	0.3
1748	20805	64120.2	0.2
1748	20809	64120.5	0.3
1748	20813	64120.707777968109	0.2
1748	20819	64121.011992073349	0.3
1748	21842	67320.2	0.2
1748	21845	67320.4	0.2
1748	21852	67320.619429524974	0.2
1748	21860	67320.929923338644	0.3
1748	22879	70520.1	0.1
1748	22882	70520.3	0.2
1748	22886	70520.5097608803	0.2
1748	22893	70520.825957935402	0.3
1748	23908	73720.2	0.2
1748	23912	73720.403195024619	0.2
1748	23916	73720.60926623779	0.2
1748	23930	73720.863576323411	0.2
1748	24956	76920.1	0.1
1748	24960	76920.4	0.3
1748	24965	76920.706402168737	0.3
1748	24972	76920.926097550013	0.2
1748	25979	80120.2	0.2
1748	25983	80120.5	0.3
1748	25988	80120.718434160946	0.2
1748	26001	80120.971901318022	0.2
1748	27023	83320.1	0.1
1748	27026	83320.3	0.2
1748	27031	83320.510981004093	0.2
1748	27036	83320.717167747913	0.2
1748	28056	86520.1	0.1
1748	28060	86520.4	0.3
1748	28064	86520.607044495067	0.2
1748	28068	86520.815805344048	0.2
1748	29104	89720.2	0.2
1748	29107	89720.4	0.2
1748	29112	89720.708440747656	0.3
1748	29125	89720.952308318756	0.2
1748	30167	92920.2	0.2
1748	30172	92920.504534474683	0.3
1748	30176	92920.708678583958	0.2
1748	30182	92920.918410848272	0.2
1748	31234	96120.2	0.2
1748	31238	96120.5	0.3
1748	31243	96120.803901777984	0.3
1748	31248	96121.014574214563	0.2
1748	32245	99320.1	0.1
1748	32252	99320.419652319858	0.3
1748	32257	99320.627446272401	0.2
1748	32261	99320.836865911884	0.2
1748	33303	102520.1	0.1
1748	33306	102520.3	0.2
1748	33314	102520.519815751552	0.2
1748	33329	102520.786951954935	0.2
1748	34338	105720	0
1748	34342	105720.3	0.3
1748	34348	105720.617159254031	0.3
1748	34353	105720.828838989826	0.2
1748	35383	108920.2	0.2
1748	35387	108920.5	0.3
1748	35393	108920.816680264742	0.3
1748	35397	108921.022232499282	0.2
1748	36424	112120.1	0.1
1748	36428	112120.4	0.3
1748	36432	112120.607978299015	0.2
1748	36437	112120.912427733123	0.3
1748	37477	115320.2	0.2
1748	37480	115320.4	0.2
1748	37485	115320.709851923906	0.3
1748	37489	115320.916596787278	0.2
1748	38529	118520.1	0.1
1748	38533	118520.4	0.3
1748	38537	118520.60269923561	0.2
1748	38544	118520.819249908982	0.2
1748	39584	121720.1	0.1
1748	39588	121720.300225953322	0.2
1748	39595	121720.613026926222	0.3
1748	39599	121720.814543366553	0.2
1748	40587	124920.1	0.1
1748	40591	124920.301572501754	0.2
1748	40598	124920.522318332767	0.2
1748	40603	124920.731010578298	0.2
1748	41626	128120.1	0.1
1748	41631	128120.303165870138	0.2
1748	41636	128120.510104810002	0.2
1748	41642	128120.816851903933	0.3
1748	42702	131320.2	0.2
1748	42705	131320.4	0.2
1748	42710	131320.609274886135	0.2
1748	42715	131320.913801527822	0.3
1748	43740	134520.1	0.1
1748	43744	134520.306882269803	0.2
1748	43749	134520.611749544554	0.3
1748	43754	134520.818720601617	0.2
1748	44772	137720.1	0.1
1748	44775	137720.3	0.2
1748	44785	137720.526100459164	0.2
1748	44793	137720.834917632181	0.3
1748	45810	140920.2	0.2
1748	45814	140920.5	0.3
1748	45819	140920.716669005425	0.2
1748	45824	140921.02395964289	0.3
1748	46838	144120.2	0.2
1748	46841	144120.4	0.2
1748	46846	144120.615068365209	0.2
1748	46851	144120.924902376273	0.3
1748	47851	147320.2	0.2
1748	47856	147320.509706732493	0.3
1748	47861	147320.816608994812	0.3
1748	47883	147321.116681288938	0.2
1748	48901	150520.2	0.2
1748	48905	150520.5	0.3
1748	48911	150520.804742495151	0.3
1748	48915	150521.009607861539	0.2
1748	49934	153720.1	0.1
1748	49937	153720.3	0.2
1748	49942	153720.600092873892	0.3
1748	49946	153720.810025784373	0.2
1748	50984	156920.1	0.1
1748	50987	156920.3	0.2
1748	50992	156920.514041066293	0.2
1748	50999	156920.736406066302	0.2
1748	52031	160120.1	0.1
1748	52035	160120.4	0.3
1748	52039	160120.608334208843	0.2
1748	52043	160120.813204720019	0.2
1748	53027	163320.2	0.2
1748	53030	163320.4	0.2
1748	53035	163320.703314470511	0.3
1748	53040	163320.913264406395	0.2
1748	54069	166520.2	0.2
1748	54072	166520.4	0.2
1748	54077	166520.706291013802	0.3
1748	54082	166521.006948064721	0.3
1748	55123	169720.1	0.1
1748	55126	169720.3	0.2
1748	55130	169720.508842266357	0.2
1748	55140	169720.846942499831	0.3
1748	56122	172920.1	0.1
1748	56125	172920.3	0.2
1748	56129	172920.507364263378	0.2
1748	56133	172920.708943418713	0.2
1748	57152	176120.2	0.2
1748	57157	176120.501315736786	0.3
1748	57162	176120.802430791888	0.3
1748	57166	176121.00267106687	0.2
1748	58186	179320.1	0.1
1748	58189	179320.3	0.2
1748	58194	179320.603149265416	0.3
1748	58199	179320.815205053392	0.2
1748	59252	182520.2	0.2
1748	59255	182520.4	0.2
1748	59259	182520.608294243714	0.2
1748	59263	182520.817283239051	0.2
1748	60298	185720.1	0.1
1748	60302	185720.4	0.3
1748	60306	185720.606968996534	0.2
1748	60316	185720.931705337703	0.3
1748	61328	188920	0
1748	61334	188920.207294826681	0.2
1748	61340	188920.421657093949	0.2
1748	61345	188920.626615638447	0.2
1748	62362	192120.1	0.1
1748	62366	192120.4	0.3
1748	62370	192120.601630814904	0.2
1748	62378	192120.824799255411	0.2
1748	63411	195320.2	0.2
1748	63414	195320.4	0.2
1748	63420	195320.705483119059	0.3
1748	63424	195320.913213345729	0.2
1748	64476	198520.2	0.2
1748	64480	198520.5	0.3
1748	64484	198520.709976790728	0.2
1748	64489	198520.914468346481	0.2
1748	65514	201720.2	0.2
1748	65517	201720.4	0.2
1748	65522	201720.702796524474	0.3
1748	65529	201720.91863584232	0.2
1749	61	220.1	1
1749	65	220.4	2
1749	70	220.703196861199	2
1749	76	221.013879747804	2
1749	1129	3420.2	2
1749	1132	3420.4	1
1749	1140	3420.718046484507	2
1749	1145	3420.92928473342	1
1749	2189	6620.2	2
1749	2194	6620.50318607476	2
1749	2198	6620.71217517255	1
1749	2204	6621.023810767094	2
1749	3209	9820.1	1
1749	3212	9820.3	1
1749	3216	9820.506238913382	1
1749	3223	9820.737265459404	1
1749	4237	13020.1	1
1749	4240	13020.3	1
1749	4245	13020.602988948747	2
1749	4257	13020.848073978462	1
1749	5271	16220.1	1
1749	5275	16220.4	2
1749	5279	16220.609406768884	1
1749	5283	16220.814966718898	1
1749	6303	19420	0
1749	6306	19420.2	1
1749	6310	19420.402384072898	1
1749	6315	19420.607020014926	1
1749	7344	22620.2	2
1749	7347	22620.4	1
1749	7351	22620.607136968034	1
1749	7359	22620.839749570711	1
1749	8369	25820	0
1749	8372	25820.2	1
1749	8376	25820.400544728636	1
1749	8382	25820.61431589102	1
1749	9446	29020.1	1
1749	9450	29020.4	2
1749	9455	29020.607459644276	1
1749	9464	29020.833928649334	1
1749	10476	32220.1	1
1749	10479	32220.3	1
1749	10483	32220.501090603005	1
1749	10487	32220.710082067798	1
1749	11479	35420.1	1
1749	11482	35420.3	1