version 2
run Stability-124-20130526-18:55:29-1898
attr configname Stability
attr datetime 20130526-18:55:29
attr experiment Stability
attr inifile omnetpp.ini
attr iterationvars $0=1e-6
attr iterationvars2 "$0=1e-6, $repetition=4"
attr measurement $0=1e-6
attr network Network
attr processid 1898
attr repetition 4
attr replication #4
attr resultdir results
attr runnumber 124
attr seedset 124

vector 12124  Network.churner  inGoingSizeSig:vector  ETV
vector 12031  Network.dyn_peer[1]  lookupHopsSig:vector  ETV
vector 12032  Network.dyn_peer[1]  lookupStabilitySig:vector  ETV
vector 12033  Network.dyn_peer[1]  lookupTimeSig:vector  ETV
vector 12052  Network.dyn_peer[8]  lookupHopsSig:vector  ETV
vector 12053  Network.dyn_peer[8]  lookupStabilitySig:vector  ETV
vector 12054  Network.dyn_peer[8]  lookupTimeSig:vector  ETV
vector 12061  Network.dyn_peer[11]  lookupHopsSig:vector  ETV
vector 12062  Network.dyn_peer[11]  lookupStabilitySig:vector  ETV
vector 12063  Network.dyn_peer[11]  lookupTimeSig:vector  ETV
vector 12076  Network.dyn_peer[16]  lookupHopsSig:vector  ETV
vector 12077  Network.dyn_peer[16]  lookupStabilitySig:vector  ETV
vector 12078  Network.dyn_peer[16]  lookupTimeSig:vector  ETV
vector 12034  Network.dyn_peer[2]  lookupHopsSig:vector  ETV
vector 12035  Network.dyn_peer[2]  lookupStabilitySig:vector  ETV
vector 12036  Network.dyn_peer[2]  lookupTimeSig:vector  ETV
vector 12037  Network.dyn_peer[3]  lookupHopsSig:vector  ETV
vector 12038  Network.dyn_peer[3]  lookupStabilitySig:vector  ETV
vector 12039  Network.dyn_peer[3]  lookupTimeSig:vector  ETV
vector 12046  Network.dyn_peer[6]  lookupHopsSig:vector  ETV
vector 12047  Network.dyn_peer[6]  lookupStabilitySig:vector  ETV
vector 12048  Network.dyn_peer[6]  lookupTimeSig:vector  ETV
vector 12058  Network.dyn_peer[10]  lookupHopsSig:vector  ETV
vector 12059  Network.dyn_peer[10]  lookupStabilitySig:vector  ETV
vector 12060  Network.dyn_peer[10]  lookupTimeSig:vector  ETV
vector 12064  Network.dyn_peer[12]  lookupHopsSig:vector  ETV
vector 12065  Network.dyn_peer[12]  lookupStabilitySig:vector  ETV
vector 12066  Network.dyn_peer[12]  lookupTimeSig:vector  ETV
vector 12082  Network.dyn_peer[18]  lookupHopsSig:vector  ETV
vector 12083  Network.dyn_peer[18]  lookupStabilitySig:vector  ETV
vector 12084  Network.dyn_peer[18]  lookupTimeSig:vector  ETV
vector 12097  Network.dyn_peer[23]  lookupHopsSig:vector  ETV
vector 12098  Network.dyn_peer[23]  lookupStabilitySig:vector  ETV
vector 12099  Network.dyn_peer[23]  lookupTimeSig:vector  ETV
vector 12106  Network.dyn_peer[26]  lookupHopsSig:vector  ETV
vector 12107  Network.dyn_peer[26]  lookupStabilitySig:vector  ETV
vector 12108  Network.dyn_peer[26]  lookupTimeSig:vector  ETV
vector 12112  Network.dyn_peer[28]  lookupHopsSig:vector  ETV
vector 12113  Network.dyn_peer[28]  lookupStabilitySig:vector  ETV
vector 12114  Network.dyn_peer[28]  lookupTimeSig:vector  ETV
vector 12121  Network.dyn_peer[31]  lookupHopsSig:vector  ETV
vector 12122  Network.dyn_peer[31]  lookupStabilitySig:vector  ETV
vector 12123  Network.dyn_peer[31]  lookupTimeSig:vector  ETV
vector 12055  Network.dyn_peer[9]  lookupHopsSig:vector  ETV
vector 12056  Network.dyn_peer[9]  lookupStabilitySig:vector  ETV
vector 12057  Network.dyn_peer[9]  lookupTimeSig:vector  ETV
vector 12079  Network.dyn_peer[17]  lookupHopsSig:vector  ETV
vector 12080  Network.dyn_peer[17]  lookupStabilitySig:vector  ETV
vector 12081  Network.dyn_peer[17]  lookupTimeSig:vector  ETV
vector 12085  Network.dyn_peer[19]  lookupHopsSig:vector  ETV
vector 12086  Network.dyn_peer[19]  lookupStabilitySig:vector  ETV
vector 12087  Network.dyn_peer[19]  lookupTimeSig:vector  ETV
vector 12091  Network.dyn_peer[21]  lookupHopsSig:vector  ETV
vector 12092  Network.dyn_peer[21]  lookupStabilitySig:vector  ETV
vector 12093  Network.dyn_peer[21]  lookupTimeSig:vector  ETV
vector 12100  Network.dyn_peer[24]  lookupHopsSig:vector  ETV
vector 12101  Network.dyn_peer[24]  lookupStabilitySig:vector  ETV
vector 12102  Network.dyn_peer[24]  lookupTimeSig:vector  ETV
vector 12103  Network.dyn_peer[25]  lookupHopsSig:vector  ETV
vector 12104  Network.dyn_peer[25]  lookupStabilitySig:vector  ETV
vector 12105  Network.dyn_peer[25]  lookupTimeSig:vector  ETV
vector 12115  Network.dyn_peer[29]  lookupHopsSig:vector  ETV
vector 12116  Network.dyn_peer[29]  lookupStabilitySig:vector  ETV
vector 12117  Network.dyn_peer[29]  lookupTimeSig:vector  ETV
vector 12040  Network.dyn_peer[4]  lookupHopsSig:vector  ETV
vector 12041  Network.dyn_peer[4]  lookupStabilitySig:vector  ETV
vector 12042  Network.dyn_peer[4]  lookupTimeSig:vector  ETV
vector 12043  Network.dyn_peer[5]  lookupHopsSig:vector  ETV
vector 12044  Network.dyn_peer[5]  lookupStabilitySig:vector  ETV
vector 12045  Network.dyn_peer[5]  lookupTimeSig:vector  ETV
vector 12067  Network.dyn_peer[13]  lookupHopsSig:vector  ETV
vector 12068  Network.dyn_peer[13]  lookupStabilitySig:vector  ETV
vector 12069  Network.dyn_peer[13]  lookupTimeSig:vector  ETV
vector 12088  Network.dyn_peer[20]  lookupHopsSig:vector  ETV
vector 12089  Network.dyn_peer[20]  lookupStabilitySig:vector  ETV
vector 12090  Network.dyn_peer[20]  lookupTimeSig:vector  ETV
vector 12094  Network.dyn_peer[22]  lookupHopsSig:vector  ETV
vector 12095  Network.dyn_peer[22]  lookupStabilitySig:vector  ETV
vector 12096  Network.dyn_peer[22]  lookupTimeSig:vector  ETV
vector 12109  Network.dyn_peer[27]  lookupHopsSig:vector  ETV
vector 12110  Network.dyn_peer[27]  lookupStabilitySig:vector  ETV
vector 12111  Network.dyn_peer[27]  lookupTimeSig:vector  ETV
vector 12118  Network.dyn_peer[30]  lookupHopsSig:vector  ETV
vector 12119  Network.dyn_peer[30]  lookupStabilitySig:vector  ETV
vector 12120  Network.dyn_peer[30]  lookupTimeSig:vector  ETV
vector 12049  Network.dyn_peer[7]  lookupHopsSig:vector  ETV
vector 12050  Network.dyn_peer[7]  lookupStabilitySig:vector  ETV
vector 12051  Network.dyn_peer[7]  lookupTimeSig:vector  ETV
vector 12070  Network.dyn_peer[14]  lookupHopsSig:vector  ETV
vector 12071  Network.dyn_peer[14]  lookupStabilitySig:vector  ETV
vector 12072  Network.dyn_peer[14]  lookupTimeSig:vector  ETV
vector 12073  Network.dyn_peer[15]  lookupHopsSig:vector  ETV
vector 12074  Network.dyn_peer[15]  lookupStabilitySig:vector  ETV
vector 12075  Network.dyn_peer[15]  lookupTimeSig:vector  ETV
vector 12028  Network.dyn_peer[0]  lookupHopsSig:vector  ETV
vector 12029  Network.dyn_peer[0]  lookupStabilitySig:vector  ETV
vector 12030  Network.dyn_peer[0]  lookupTimeSig:vector  ETV
12028	554	20.700000001	7
12028	994	21.200000001	4
12028	1333	21.503557363946	2
12028	1854	21.916273639194	3
12028	2349	22.426027576586	4
12028	2358	22.428842645804	4
12028	2501	22.605596194578	13
12028	2651	22.712981138389	1
12028	3063	23.039981537038	1
12028	3103	23.112981138389	3
12028	3240	23.215169272956	1
12028	3903	23.715169272956	5
12028	4577	24.315304127673	5
12028	5193	24.924379314721	7
12028	5505	25.331170227417	3
12028	6078	25.931270228417	6
12028	6281	26.131270228417	1
12028	7067	26.834034532168	6
12028	7626	27.276381996391	12
12028	7989	27.639578554994	7
12028	8636	28.143373122417	5
12028	8893	28.343373122417	1
12028	9595	28.949333381011	6
12028	9976	29.249433382011	3
12028	10418	29.649433382011	3
12028	10893	30.068833615265	7
12028	11661	30.671140731981	6
12028	13171	31.871140731981	11
12028	13977	32.49856785741	7
12028	14229	32.702443984551	1
12028	14325	32.779310973221	8
12028	14653	33.012590932353	7
12028	14757	33.11127109629	4
12028	15045	33.31137109729	2
12028	16146	34.31137109729	10
12028	16238	34.41147109829	1
12028	16964	35.01147109829	6
12028	17995	35.815591163839	8
12028	18681	36.377964856703	1
12028	20285	37.58306330886	12
12028	21158	38.18306330886	5
12028	21397	38.388040946463	1
12028	22460	39.195212760359	8
12028	22759	39.467296872922	4
12028	22921	39.598685980132	3
12028	23394	39.998785981132	4
12028	23769	40.298785981132	3
12028	23923	40.398885982132	1
12028	24585	40.898885982132	4
12028	25281	41.399436721547	4
12028	25818	41.815606963445	3
12028	25996	41.985238705057	3
12028	26679	42.588632694894	6
12028	27341	43.144236240931	1
12028	27980	43.644336241931	5
12028	28139	43.744336241931	1
12028	29001	44.448801870183	7
12028	29420	44.844832679254	2
12028	29429	44.853359349914	3
12028	29541	44.954357612799	1
12028	29859	45.254357612799	2
12028	30781	45.968642266675	3
12028	31104	46.26291050252	9
12028	31252	46.388190422482	4
12028	31616	46.693162614541	3
12028	32009	46.993162614541	2
12028	32251	47.196089941911	1
12028	32517	47.402981636757	1
12028	33328	48.107163333027	7
12028	34069	48.651331473619	5
12028	34663	49.151331473619	4
12028	35328	49.751601251438	6
12028	35722	50.155143936925	3
12028	35992	50.458763990717	2
12028	36404	50.863096801429	3
12028	36568	50.991754555407	3
12028	36916	51.296376526564	3
12028	37496	51.77765051552	2
12028	37778	51.97765051552	1
12028	38201	52.282800003478	3
12028	38783	52.882800003478	5
12028	39089	53.183130870777	2
12028	39097	53.188288207422	2
12028	39837	53.94789172059	4
12028	40120	54.14799172159	2
12028	40609	54.44799172159	3
12028	41091	54.850655332533	3
12028	41714	55.355163903671	4
12028	41971	55.557881316325	1
12028	42629	56.056250942357	3
12028	42853	56.257275097792	1
12028	43473	56.757375098792	5
12028	44028	57.257375098792	4
12028	44312	57.463953091085	1
12028	44537	57.657901564034	3
12028	44608	57.691481966331	2
12028	44733	57.773490855688	2
12028	45108	58.076593205712	3
12028	46262	58.976593205712	11
12028	46820	59.38619381976	3
12028	47155	59.586944981668	1
12028	47909	60.096266018436	5
12028	48396	60.496266018436	4
12028	48685	60.700360353218	1
12028	49435	61.205281266601	4
12028	49560	61.323456768945	5
12028	49578	61.341299865335	5
12028	49877	61.546226133934	2
12028	50261	61.846226133934	2
12028	50644	62.147495293032	2
12028	51041	62.452215446526	2
12028	51323	62.651457322073	6
12028	51495	62.759464883842	2
12028	51912	63.062180738293	2
12028	51931	63.083683892342	5
12028	52000	63.147413865071	3
12028	53581	64.4501008524	14
12028	54295	65.1501008524	6
12028	54855	65.585068020226	3
12028	54932	65.656221042656	5
12028	55384	65.986815681426	3
12028	55930	66.386915682426	4
12028	56970	67.086915682426	6
12028	57229	67.290311552248	1
12028	57921	67.86825209791	4
12028	58262	68.196277851889	8
12028	58688	68.600248350393	4
12028	60057	69.790378265831	4
12028	60172	69.900248350393	14
12028	60745	70.397860971447	6
12028	62535	72.097960972447	18
12028	63022	72.597960972447	4
12028	63274	72.802105563004	1
12028	63755	73.304311617073	5
12028	63831	73.312038103444	4
12028	64207	73.715837382585	3
12028	64788	74.225007414848	7
12028	65096	74.525007414848	2
12028	65431	74.833031448849	2
12028	65631	75.023252393092	2
12028	65809	75.142801172641	2
12028	66281	75.551998329963	4
12028	66927	76.151998329963	5
12028	67185	76.352414137676	1
12028	67538	76.552514138676	2
12028	67762	76.752514138676	1
12028	68285	77.253876289384	1
12028	68624	77.553876289384	2
12028	69302	78.154547964836	6
12028	69718	78.461638886505	2
12028	70646	79.359454095113	3
12028	71235	79.861296457561	5
12028	71864	80.361296457561	4
12028	72268	80.761568143746	3
12028	72855	81.270465467002	4
12028	72958	81.381562722855	4
12028	73165	81.580085761386	2
12028	73726	81.982291605279	4
12028	74009	82.182291605279	1
12028	74600	82.691972589112	4
12028	75147	83.210428343064	4
12028	76935	84.819645246145	18
12028	77606	85.419645246145	6
12028	78115	85.827632014542	3
12028	78626	86.136465447521	2
12028	79651	86.941630724778	8
12028	80320	87.460723276875	2
12028	80849	87.848071128306	9
12028	80946	87.940366844986	2
12028	81605	88.444698486413	4
12028	81641	88.462291349501	10
12028	82019	88.762396515571	4
12028	83082	89.578854982701	1
12028	83870	90.178854982701	5
12028	84546	90.684669265793	5
12028	84993	90.98530159138	2
12028	85018	90.994694907327	0
12028	86028	91.873163846743	5
12028	86516	92.182989656577	4
12028	87084	92.582989656577	3
12028	87642	93.056975573245	5
12028	87864	93.266682620585	1
12028	88386	93.774201005606	6
12028	88623	93.980957457054	1
12028	88890	94.186795374802	1
12028	90340	95.404689778823	12
12028	90594	95.621091300264	1
12028	90868	95.825456399818	1
12028	91158	96.026214810577	1
12028	91374	96.175071626869	1
12028	91704	96.479544442962	3
12028	92816	97.634350139023	8
12028	93956	98.534350139023	11
12028	94200	98.760044780236	10
12028	94531	99.065889785835	3
12028	95309	99.765889785835	6
12028	95699	100.074057486281	2
12028	95876	100.165163719604	2
12028	96507	100.578629088648	4
12028	96762	100.784082201613	1
12028	97176	101.084014791199	8
12028	97194	101.087744639512	0
12028	97915	101.687744639512	5
12028	98878	102.4967339977	7
12028	100217	103.5968339987	12
12028	100597	103.8968339987	2
12028	101134	104.297528040664	3
12028	101745	104.818333926407	4
12028	101936	105.020400560706	1
12028	102363	105.325361687561	3
12028	103114	105.925361687561	5
12028	103390	106.132774689841	1
12028	103616	106.340857991795	1
12028	105079	107.552531464718	13
12028	105265	107.688473466284	5
12028	106004	108.355533148316	8
12028	106007	108.358774992121	8
12028	106016	108.361334086071	3
12028	106209	108.493063981256	8
12028	107021	109.10022715343	7
12028	107691	109.70022715343	5
12028	107930	109.908117187026	2
12028	108325	110.214673015692	2
12028	108445	110.28741864951	4
12028	108628	110.42247718458	1
12028	108853	110.593648239464	2
12028	109404	111.003723019759	4
12028	109626	111.203723019759	1
12028	109918	111.510017960189	2
12028	110397	111.925489288932	3
12028	111509	112.82739453024	8
12028	111544	112.855484875231	8
12028	112157	113.333232988896	4
12028	112383	113.53569750538	2
12028	112401	113.559223183668	6
12028	112527	113.641851442128	2
12028	112637	113.741236449032	1
12028	113013	114.046947654585	3
12028	113553	114.546947654585	4
12028	113877	114.852815308532	2
12028	114195	115.056978799864	1
12028	114841	115.564176828079	4
12028	114877	115.591873055848	3
12028	115374	116.00078437839	4
12028	115996	116.60078437839	7
12028	116719	117.30240657527	6
12028	117027	117.514158624018	1
12028	117346	117.820157327766	2
12028	117946	118.43002022908	5
12028	118284	118.718877530763	8
12028	118765	119.039901462413	5
12028	119039	119.255621487467	1
12028	119190	119.365667742991	1
12028	119368	119.565667742991	1
12028	119464	119.666765131005	1
12028	119993	120.266765131005	5
12028	120282	120.568038074977	2
12028	120705	120.975941417134	4
12028	121365	121.579883023503	2
12028	121618	121.779883023503	2
12028	122161	122.280187648202	4
12028	122467	122.484427047696	1
12028	122479	122.488320918807	1
12028	122809	122.787361827868	2
12028	123055	122.993496898378	1
12028	123347	123.290228229423	7
12028	123512	123.421893077962	7
12028	123735	123.591970293927	2
12028	123740	123.594529956192	2
12028	124383	124.099034067584	6
12028	125108	124.799034067584	7
12028	125803	125.502160190812	8
12028	125837	125.515705507608	6
12028	126714	126.305424779327	9
12028	126877	126.427578931805	9
12028	126925	126.483054132398	9
12028	128142	127.385310583643	9
12028	128713	127.885310583643	4
12028	128997	128.18554501614	2
12028	129590	128.68949918157	4
12028	129594	128.693095442088	4
12028	130238	129.361944816756	6
12028	130604	129.697766821469	11
12028	130606	129.69912060122	11
12028	130918	129.900835070785	2
12028	132468	131.092801263611	2
12028	134209	132.674392556335	9
12028	134677	133.074392556335	3
12028	135373	133.683090954852	6
12028	135548	133.889018028394	1
12028	135592	133.94776689085	1
12028	135737	134.157952459755	1
12028	135776	134.295619786681	5
12029	554	20.700000001	0.125
12029	994	21.200000001	0.5
12029	1333	21.503557363946	0.75
12029	1854	21.916273639194	0.625
12029	2349	22.426027576586	0.5
12029	2358	22.428842645804	0.5
12029	2501	22.605596194578	-0.625
12029	2651	22.712981138389	0.875
12029	3063	23.039981537038	0.875
12029	3103	23.112981138389	0.625
12029	3240	23.215169272956	0.875
12029	3903	23.715169272956	0.375
12029	4577	24.315304127673	0.375
12029	5193	24.924379314721	0.125
12029	5505	25.331170227417	0.625
12029	6078	25.931270228417	0.25
12029	6281	26.131270228417	0.875
12029	7067	26.834034532168	0.25
12029	7626	27.276381996391	-0.5
12029	7989	27.639578554994	0.125
12029	8636	28.143373122417	0.375
12029	8893	28.343373122417	0.875
12029	9595	28.949333381011	0.25
12029	9976	29.249433382011	0.625
12029	10418	29.649433382011	0.625
12029	10893	30.068833615265	0.125
12029	11661	30.671140731981	0.25
12029	13171	31.871140731981	-0.375
12029	13977	32.49856785741	0.125
12029	14229	32.702443984551	0.875
12029	14325	32.779310973221	0
12029	14653	33.012590932353	0.125
12029	14757	33.11127109629	0.5
12029	15045	33.31137109729	0.75
12029	16146	34.31137109729	-0.25
12029	16238	34.41147109829	0.875
12029	16964	35.01147109829	0.25
12029	17995	35.815591163839	0
12029	18681	36.377964856703	0.875
12029	20285	37.58306330886	-0.5
12029	21158	38.18306330886	0.375
12029	21397	38.388040946463	0.875
12029	22460	39.195212760359	0
12029	22759	39.467296872922	0.5
12029	22921	39.598685980132	0.625
12029	23394	39.998785981132	0.5
12029	23769	40.298785981132	0.625
12029	23923	40.398885982132	0.875
12029	24585	40.898885982132	0.5
12029	25281	41.399436721547	0.5
12029	25818	41.815606963445	0.625
12029	25996	41.985238705057	0.625
12029	26679	42.588632694894	0.25
12029	27341	43.144236240931	0.875
12029	27980	43.644336241931	0.375
12029	28139	43.744336241931	0.875
12029	29001	44.448801870183	0.125
12029	29420	44.844832679254	0.75
12029	29429	44.853359349914	0.625
12029	29541	44.954357612799	0.875
12029	29859	45.254357612799	0.75
12029	30781	45.968642266675	0.625
12029	31104	46.26291050252	-0.125
12029	31252	46.388190422482	0.5
12029	31616	46.693162614541	0.625
12029	32009	46.993162614541	0.75
12029	32251	47.196089941911	0.875
12029	32517	47.402981636757	0.875
12029	33328	48.107163333027	0.125
12029	34069	48.651331473619	0.375
12029	34663	49.151331473619	0.5
12029	35328	49.751601251438	0.25
12029	35722	50.155143936925	0.625
12029	35992	50.458763990717	0.75
12029	36404	50.863096801429	0.625
12029	36568	50.991754555407	0.625
12029	36916	51.296376526564	0.625
12029	37496	51.77765051552	0.75
12029	37778	51.97765051552	0.875
12029	38201	52.282800003478	0.625
12029	38783	52.882800003478	0.375
12029	39089	53.183130870777	0.75
12029	39097	53.188288207422	0.75
12029	39837	53.94789172059	0.5
12029	40120	54.14799172159	0.75
12029	40609	54.44799172159	0.625
12029	41091	54.850655332533	0.625
12029	41714	55.355163903671	0.5
12029	41971	55.557881316325	0.875
12029	42629	56.056250942357	0.625
12029	42853	56.257275097792	0.875
12029	43473	56.757375098792	0.375
12029	44028	57.257375098792	0.5
12029	44312	57.463953091085	0.875
12029	44537	57.657901564034	0.625
12029	44608	57.691481966331	0.75
12029	44733	57.773490855688	0.75
12029	45108	58.076593205712	0.625
12029	46262	58.976593205712	-0.375
12029	46820	59.38619381976	0.625
12029	47155	59.586944981668	0.875
12029	47909	60.096266018436	0.375
12029	48396	60.496266018436	0.5
12029	48685	60.700360353218	0.875
12029	49435	61.205281266601	0.5
12029	49560	61.323456768945	0.375
12029	49578	61.341299865335	0.375
12029	49877	61.546226133934	0.75
12029	50261	61.846226133934	0.75
12029	50644	62.147495293032	0.75
12029	51041	62.452215446526	0.75
12029	51323	62.651457322073	0.25
12029	51495	62.759464883842	0.75
12029	51912	63.062180738293	0.75
12029	51931	63.083683892342	0.375
12029	52000	63.147413865071	0.625
12029	53581	64.4501008524	-0.75
12029	54295	65.1501008524	0.25
12029	54855	65.585068020226	0.625
12029	54932	65.656221042656	0.375
12029	55384	65.986815681426	0.625
12029	55930	66.386915682426	0.5
12029	56970	67.086915682426	0.25
12029	57229	67.290311552248	0.875
12029	57921	67.86825209791	0.5
12029	58262	68.196277851889	0
12029	58688	68.600248350393	0.5
12029	60057	69.790378265831	0.5
12029	60172	69.900248350393	-0.75
12029	60745	70.397860971447	0.25
12029	62535	72.097960972447	-1.25
12029	63022	72.597960972447	0.5
12029	63274	72.802105563004	0.875
12029	63755	73.304311617073	0.375
12029	63831	73.312038103444	0.5
12029	64207	73.715837382585	0.625
12029	64788	74.225007414848	0.125
12029	65096	74.525007414848	0.75
12029	65431	74.833031448849	0.75
12029	65631	75.023252393092	0.75
12029	65809	75.142801172641	0.75
12029	66281	75.551998329963	0.5
12029	66927	76.151998329963	0.375
12029	67185	76.352414137676	0.875
12029	67538	76.552514138676	0.75
12029	67762	76.752514138676	0.875
12029	68285	77.253876289384	0.875
12029	68624	77.553876289384	0.75
12029	69302	78.154547964836	0.25
12029	69718	78.461638886505	0.75
12029	70646	79.359454095113	0.625
12029	71235	79.861296457561	0.375
12029	71864	80.361296457561	0.5
12029	72268	80.761568143746	0.625
12029	72855	81.270465467002	0.5
12029	72958	81.381562722855	0.5
12029	73165	81.580085761386	0.75
12029	73726	81.982291605279	0.5
12029	74009	82.182291605279	0.875
12029	74600	82.691972589112	0.5
12029	75147	83.210428343064	0.5
12029	76935	84.819645246145	-1.25
12029	77606	85.419645246145	0.25
12029	78115	85.827632014542	0.625
12029	78626	86.136465447521	0.75
12029	79651	86.941630724778	0
12029	80320	87.460723276875	0.75
12029	80849	87.848071128306	-0.125
12029	80946	87.940366844986	0.75
12029	81605	88.444698486413	0.5
12029	81641	88.462291349501	-0.25
12029	82019	88.762396515571	0.5
12029	83082	89.578854982701	0.875
12029	83870	90.178854982701	0.375
12029	84546	90.684669265793	0.375
12029	84993	90.98530159138	0.75
12029	85018	90.994694907327	1
12029	86028	91.873163846743	0.375
12029	86516	92.182989656577	0.5
12029	87084	92.582989656577	0.625
12029	87642	93.056975573245	0.375
12029	87864	93.266682620585	0.875
12029	88386	93.774201005606	0.25
12029	88623	93.980957457054	0.875
12029	88890	94.186795374802	0.875
12029	90340	95.404689778823	-0.5
12029	90594	95.621091300264	0.875
12029	90868	95.825456399818	0.875
12029	91158	96.026214810577	0.875
12029	91374	96.175071626869	0.875
12029	91704	96.479544442962	0.625
12029	92816	97.634350139023	0
12029	93956	98.534350139023	-0.375
12029	94200	98.760044780236	-0.25
12029	94531	99.065889785835	0.625
12029	95309	99.765889785835	0.25
12029	95699	100.074057486281	0.75
12029	95876	100.165163719604	0.75
12029	96507	100.578629088648	0.5
12029	96762	100.784082201613	0.875
12029	97176	101.084014791199	0
12029	97194	101.087744639512	1
12029	97915	101.687744639512	0.375
12029	98878	102.4967339977	0.125
12029	100217	103.5968339987	-0.5
12029	100597	103.8968339987	0.75
12029	101134	104.297528040664	0.625
12029	101745	104.818333926407	0.5
12029	101936	105.020400560706	0.875
12029	102363	105.325361687561	0.625
12029	103114	105.925361687561	0.375
12029	103390	106.132774689841	0.875
12029	103616	106.340857991795	0.875
12029	105079	107.552531464718	-0.625
12029	105265	107.688473466284	0.375
12029	106004	108.355533148316	0
12029	106007	108.358774992121	0
12029	106016	108.361334086071	0.625
12029	106209	108.493063981256	0
12029	107021	109.10022715343	0.125
12029	107691	109.70022715343	0.375
12029	107930	109.908117187026	0.75
12029	108325	110.214673015692	0.75
12029	108445	110.28741864951	0.5
12029	108628	110.42247718458	0.875
12029	108853	110.593648239464	0.75
12029	109404	111.003723019759	0.5
12029	109626	111.203723019759	0.875
12029	109918	111.510017960189	0.75
12029	110397	111.925489288932	0.625
12029	111509	112.82739453024	0
12029	111544	112.855484875231	0
12029	112157	113.333232988896	0.5
12029	112383	113.53569750538	0.75
12029	112401	113.559223183668	0.25
12029	112527	113.641851442128	0.75
12029	112637	113.741236449032	0.875
12029	113013	114.046947654585	0.625
12029	113553	114.546947654585	0.5
12029	113877	114.852815308532	0.75
12029	114195	115.056978799864	0.875
12029	114841	115.564176828079	0.5
12029	114877	115.591873055848	0.625
12029	115374	116.00078437839	0.5
12029	115996	116.60078437839	0.125
12029	116719	117.30240657527	0.25
12029	117027	117.514158624018	0.875
12029	117346	117.820157327766	0.75
12029	117946	118.43002022908	0.375
12029	118284	118.718877530763	0
12029	118765	119.039901462413	0.375
12029	119039	119.255621487467	0.875
12029	119190	119.365667742991	0.875
12029	119368	119.565667742991	0.875
12029	119464	119.666765131005	0.875
12029	119993	120.266765131005	0.375
12029	120282	120.568038074977	0.75
12029	120705	120.975941417134	0.5
12029	121365	121.579883023503	0.75
12029	121618	121.779883023503	0.75
12029	122161	122.280187648202	0.5
12029	122467	122.484427047696	0.875
12029	122479	122.488320918807	0.875
12029	122809	122.787361827868	0.75
12029	123055	122.993496898378	0.875
12029	123347	123.290228229423	0.125
12029	123512	123.421893077962	0.125
12029	123735	123.591970293927	0.75
12029	123740	123.594529956192	0.75
12029	124383	124.099034067584	0.25
12029	125108	124.799034067584	0.125
12029	125803	125.502160190812	0
12029	125837	125.515705507608	0.25
12029	126714	126.305424779327	-0.125
12029	126877	126.427578931805	-0.125
12029	126925	126.483054132398	-0.125
12029	128142	127.385310583643	-0.125
12029	128713	127.885310583643	0.5
12029	128997	128.18554501614	0.75
12029	129590	128.68949918157	0.5
12029	129594	128.693095442088	0.5
12029	130238	129.361944816756	0.25
12029	130604	129.697766821469	-0.375
12029	130606	129.69912060122	-0.375
12029	130918	129.900835070785	0.75
12029	132468	131.092801263611	0.75
12029	134209	132.674392556335	0
12029	134677	133.074392556335	0.625
12029	135373	133.683090954852	0.25
12029	135548	133.889018028394	0.875
12029	135592	133.94776689085	0.875
12029	135737	134.157952459755	0.875
12029	135776	134.295619786681	0.375
12030	554	20.700000001	0.7
12030	994	21.200000001	0.5
12030	1333	21.503557363946	0.3
12030	1854	21.916273639194	0.4
12030	2349	22.426027576586	0.5
12030	2358	22.428842645804	0.5
12030	2501	22.605596194578	1.1
12030	2651	22.712981138389	0.1
12030	3063	23.039981537038	0.2
12030	3103	23.112981138389	0.4
12030	3240	23.215169272956	0.1
12030	3903	23.715169272956	0.5
12030	4577	24.315304127673	0.6
12030	5193	24.924379314721	0.6
12030	5505	25.331170227417	0.4
12030	6078	25.931270228417	0.6
12030	6281	26.131270228417	0.2
12030	7067	26.834034532168	0.7
12030	7626	27.276381996391	1.1
12030	7989	27.639578554994	0.8
12030	8636	28.143373122417	0.5
12030	8893	28.343373122417	0.2
12030	9595	28.949333381011	0.6
12030	9976	29.249433382011	0.3
12030	10418	29.649433382011	0.4
12030	10893	30.068833615265	0.7
12030	11661	30.671140731981	0.6
12030	13171	31.871140731981	1.2
12030	13977	32.49856785741	0.8
12030	14229	32.702443984551	0.2
12030	14325	32.779310973221	0.9
12030	14653	33.012590932353	0.8
12030	14757	33.11127109629	0.4
12030	15045	33.31137109729	0.2
12030	16146	34.31137109729	1
12030	16238	34.41147109829	0.1
12030	16964	35.01147109829	0.6
12030	17995	35.815591163839	0.8
12030	18681	36.377964856703	0.2
12030	20285	37.58306330886	1.2
12030	21158	38.18306330886	0.6
12030	21397	38.388040946463	0.2
12030	22460	39.195212760359	0.8
12030	22759	39.467296872922	0.5
12030	22921	39.598685980132	0.4
12030	23394	39.998785981132	0.4
12030	23769	40.298785981132	0.3
12030	23923	40.398885982132	0.1
12030	24585	40.898885982132	0.5
12030	25281	41.399436721547	0.5
12030	25818	41.815606963445	0.4
12030	25996	41.985238705057	0.3
12030	26679	42.588632694894	0.6
12030	27341	43.144236240931	0.2
12030	27980	43.644336241931	0.5
12030	28139	43.744336241931	0.1
12030	29001	44.448801870183	0.7
12030	29420	44.844832679254	0.3
12030	29429	44.853359349914	0.4
12030	29541	44.954357612799	0.1
12030	29859	45.254357612799	0.3
12030	30781	45.968642266675	0.4
12030	31104	46.26291050252	0.9
12030	31252	46.388190422482	0.5
12030	31616	46.693162614541	0.3
12030	32009	46.993162614541	0.3
12030	32251	47.196089941911	0.2
12030	32517	47.402981636757	0.2
12030	33328	48.107163333027	0.7
12030	34069	48.651331473619	0.4
12030	34663	49.151331473619	0.5
12030	35328	49.751601251438	0.6
12030	35722	50.155143936925	0.4
12030	35992	50.458763990717	0.3
12030	36404	50.863096801429	0.4
12030	36568	50.991754555407	0.4
12030	36916	51.296376526564	0.3
12030	37496	51.77765051552	0.2
12030	37778	51.97765051552	0.2
12030	38201	52.282800003478	0.3
12030	38783	52.882800003478	0.6
12030	39089	53.183130870777	0.3
12030	39097	53.188288207422	0.3
12030	39837	53.94789172059	0.5
12030	40120	54.14799172159	0.2
12030	40609	54.44799172159	0.3
12030	41091	54.850655332533	0.4
12030	41714	55.355163903671	0.5
12030	41971	55.557881316325	0.2
12030	42629	56.056250942357	0.4
12030	42853	56.257275097792	0.2
12030	43473	56.757375098792	0.5
12030	44028	57.257375098792	0.5
12030	44312	57.463953091085	0.2
12030	44537	57.657901564034	0.4
12030	44608	57.691481966331	0.3
12030	44733	57.773490855688	0.3
12030	45108	58.076593205712	0.3
12030	46262	58.976593205712	0.9
12030	46820	59.38619381976	0.4
12030	47155	59.586944981668	0.2
12030	47909	60.096266018436	0.5
12030	48396	60.496266018436	0.4
12030	48685	60.700360353218	0.2
12030	49435	61.205281266601	0.5
12030	49560	61.323456768945	0.5
12030	49578	61.341299865335	0.5
12030	49877	61.546226133934	0.2
12030	50261	61.846226133934	0.3
12030	50644	62.147495293032	0.3
12030	51041	62.452215446526	0.3
12030	51323	62.651457322073	0.6
12030	51495	62.759464883842	0.3
12030	51912	63.062180738293	0.3
12030	51931	63.083683892342	0.5
12030	52000	63.147413865071	0.4
12030	53581	64.4501008524	1.3
12030	54295	65.1501008524	0.7
12030	54855	65.585068020226	0.4
12030	54932	65.656221042656	0.5
12030	55384	65.986815681426	0.4
12030	55930	66.386915682426	0.4
12030	56970	67.086915682426	0.7
12030	57229	67.290311552248	0.2
12030	57921	67.86825209791	0.5
12030	58262	68.196277851889	0.9
12030	58688	68.600248350393	0.4
12030	60057	69.790378265831	0.4
12030	60172	69.900248350393	1.3
12030	60745	70.397860971447	0.6
12030	62535	72.097960972447	1.7
12030	63022	72.597960972447	0.5
12030	63274	72.802105563004	0.2
12030	63755	73.304311617073	0.6
12030	63831	73.312038103444	0.5
12030	64207	73.715837382585	0.4
12030	64788	74.225007414848	0.5
12030	65096	74.525007414848	0.3
12030	65431	74.833031448849	0.3
12030	65631	75.023252393092	0.3
12030	65809	75.142801172641	0.3
12030	66281	75.551998329963	0.4
12030	66927	76.151998329963	0.6
12030	67185	76.352414137676	0.2
12030	67538	76.552514138676	0.2
12030	67762	76.752514138676	0.2
12030	68285	77.253876289384	0.1
12030	68624	77.553876289384	0.3