version 2
run Stability-6-20130526-18:48:00-1898
attr configname Stability
attr datetime 20130526-18:48:00
attr experiment Stability
attr inifile omnetpp.ini
attr iterationvars $0=1e6
attr iterationvars2 "$0=1e6, $repetition=6"
attr measurement $0=1e6
attr network Network
attr processid 1898
attr repetition 6
attr replication #6
attr resultdir results
attr runnumber 6
attr seedset 6

vector 678  Network.churner  inGoingSizeSig:vector  ETV
vector 582  Network.dyn_peer[0]  lookupHopsSig:vector  ETV
vector 583  Network.dyn_peer[0]  lookupStabilitySig:vector  ETV
vector 584  Network.dyn_peer[0]  lookupTimeSig:vector  ETV
vector 585  Network.dyn_peer[1]  lookupHopsSig:vector  ETV
vector 586  Network.dyn_peer[1]  lookupStabilitySig:vector  ETV
vector 587  Network.dyn_peer[1]  lookupTimeSig:vector  ETV
vector 588  Network.dyn_peer[2]  lookupHopsSig:vector  ETV
vector 589  Network.dyn_peer[2]  lookupStabilitySig:vector  ETV
vector 590  Network.dyn_peer[2]  lookupTimeSig:vector  ETV
vector 591  Network.dyn_peer[3]  lookupHopsSig:vector  ETV
vector 592  Network.dyn_peer[3]  lookupStabilitySig:vector  ETV
vector 593  Network.dyn_peer[3]  lookupTimeSig:vector  ETV
vector 594  Network.dyn_peer[4]  lookupHopsSig:vector  ETV
vector 595  Network.dyn_peer[4]  lookupStabilitySig:vector  ETV
vector 596  Network.dyn_peer[4]  lookupTimeSig:vector  ETV
vector 597  Network.dyn_peer[5]  lookupHopsSig:vector  ETV
vector 598  Network.dyn_peer[5]  lookupStabilitySig:vector  ETV
vector 599  Network.dyn_peer[5]  lookupTimeSig:vector  ETV
vector 600  Network.dyn_peer[6]  lookupHopsSig:vector  ETV
vector 601  Network.dyn_peer[6]  lookupStabilitySig:vector  ETV
vector 602  Network.dyn_peer[6]  lookupTimeSig:vector  ETV
vector 603  Network.dyn_peer[7]  lookupHopsSig:vector  ETV
vector 604  Network.dyn_peer[7]  lookupStabilitySig:vector  ETV
vector 605  Network.dyn_peer[7]  lookupTimeSig:vector  ETV
vector 606  Network.dyn_peer[8]  lookupHopsSig:vector  ETV
vector 607  Network.dyn_peer[8]  lookupStabilitySig:vector  ETV
vector 608  Network.dyn_peer[8]  lookupTimeSig:vector  ETV
vector 609  Network.dyn_peer[9]  lookupHopsSig:vector  ETV
vector 610  Network.dyn_peer[9]  lookupStabilitySig:vector  ETV
vector 611  Network.dyn_peer[9]  lookupTimeSig:vector  ETV
vector 612  Network.dyn_peer[10]  lookupHopsSig:vector  ETV
vector 613  Network.dyn_peer[10]  lookupStabilitySig:vector  ETV
vector 614  Network.dyn_peer[10]  lookupTimeSig:vector  ETV
vector 615  Network.dyn_peer[11]  lookupHopsSig:vector  ETV
vector 616  Network.dyn_peer[11]  lookupStabilitySig:vector  ETV
vector 617  Network.dyn_peer[11]  lookupTimeSig:vector  ETV
vector 618  Network.dyn_peer[12]  lookupHopsSig:vector  ETV
vector 619  Network.dyn_peer[12]  lookupStabilitySig:vector  ETV
vector 620  Network.dyn_peer[12]  lookupTimeSig:vector  ETV
vector 621  Network.dyn_peer[13]  lookupHopsSig:vector  ETV
vector 622  Network.dyn_peer[13]  lookupStabilitySig:vector  ETV
vector 623  Network.dyn_peer[13]  lookupTimeSig:vector  ETV
vector 624  Network.dyn_peer[14]  lookupHopsSig:vector  ETV
vector 625  Network.dyn_peer[14]  lookupStabilitySig:vector  ETV
vector 626  Network.dyn_peer[14]  lookupTimeSig:vector  ETV
vector 627  Network.dyn_peer[15]  lookupHopsSig:vector  ETV
vector 628  Network.dyn_peer[15]  lookupStabilitySig:vector  ETV
vector 629  Network.dyn_peer[15]  lookupTimeSig:vector  ETV
vector 630  Network.dyn_peer[16]  lookupHopsSig:vector  ETV
vector 631  Network.dyn_peer[16]  lookupStabilitySig:vector  ETV
vector 632  Network.dyn_peer[16]  lookupTimeSig:vector  ETV
vector 633  Network.dyn_peer[17]  lookupHopsSig:vector  ETV
vector 634  Network.dyn_peer[17]  lookupStabilitySig:vector  ETV
vector 635  Network.dyn_peer[17]  lookupTimeSig:vector  ETV
vector 636  Network.dyn_peer[18]  lookupHopsSig:vector  ETV
vector 637  Network.dyn_peer[18]  lookupStabilitySig:vector  ETV
vector 638  Network.dyn_peer[18]  lookupTimeSig:vector  ETV
vector 639  Network.dyn_peer[19]  lookupHopsSig:vector  ETV
vector 640  Network.dyn_peer[19]  lookupStabilitySig:vector  ETV
vector 641  Network.dyn_peer[19]  lookupTimeSig:vector  ETV
vector 642  Network.dyn_peer[20]  lookupHopsSig:vector  ETV
vector 643  Network.dyn_peer[20]  lookupStabilitySig:vector  ETV
vector 644  Network.dyn_peer[20]  lookupTimeSig:vector  ETV
vector 645  Network.dyn_peer[21]  lookupHopsSig:vector  ETV
vector 646  Network.dyn_peer[21]  lookupStabilitySig:vector  ETV
vector 647  Network.dyn_peer[21]  lookupTimeSig:vector  ETV
vector 648  Network.dyn_peer[22]  lookupHopsSig:vector  ETV
vector 649  Network.dyn_peer[22]  lookupStabilitySig:vector  ETV
vector 650  Network.dyn_peer[22]  lookupTimeSig:vector  ETV
vector 651  Network.dyn_peer[23]  lookupHopsSig:vector  ETV
vector 652  Network.dyn_peer[23]  lookupStabilitySig:vector  ETV
vector 653  Network.dyn_peer[23]  lookupTimeSig:vector  ETV
vector 654  Network.dyn_peer[24]  lookupHopsSig:vector  ETV
vector 655  Network.dyn_peer[24]  lookupStabilitySig:vector  ETV
vector 656  Network.dyn_peer[24]  lookupTimeSig:vector  ETV
vector 657  Network.dyn_peer[25]  lookupHopsSig:vector  ETV
vector 658  Network.dyn_peer[25]  lookupStabilitySig:vector  ETV
vector 659  Network.dyn_peer[25]  lookupTimeSig:vector  ETV
vector 660  Network.dyn_peer[26]  lookupHopsSig:vector  ETV
vector 661  Network.dyn_peer[26]  lookupStabilitySig:vector  ETV
vector 662  Network.dyn_peer[26]  lookupTimeSig:vector  ETV
vector 663  Network.dyn_peer[27]  lookupHopsSig:vector  ETV
vector 664  Network.dyn_peer[27]  lookupStabilitySig:vector  ETV
vector 665  Network.dyn_peer[27]  lookupTimeSig:vector  ETV
vector 666  Network.dyn_peer[28]  lookupHopsSig:vector  ETV
vector 667  Network.dyn_peer[28]  lookupStabilitySig:vector  ETV
vector 668  Network.dyn_peer[28]  lookupTimeSig:vector  ETV
vector 669  Network.dyn_peer[29]  lookupHopsSig:vector  ETV
vector 670  Network.dyn_peer[29]  lookupStabilitySig:vector  ETV
vector 671  Network.dyn_peer[29]  lookupTimeSig:vector  ETV
vector 672  Network.dyn_peer[30]  lookupHopsSig:vector  ETV
vector 673  Network.dyn_peer[30]  lookupStabilitySig:vector  ETV
vector 674  Network.dyn_peer[30]  lookupTimeSig:vector  ETV
vector 675  Network.dyn_peer[31]  lookupHopsSig:vector  ETV
vector 676  Network.dyn_peer[31]  lookupStabilitySig:vector  ETV
vector 677  Network.dyn_peer[31]  lookupTimeSig:vector  ETV
582	32	1020.1	1
582	35	1020.3	1
582	39	1020.504032563031	1
582	44	1020.708380976837	1
582	1058	33020.1	1
582	1062	33020.4	2
582	1067	33020.709730724995	2
582	1071	33020.917572365114	1
582	2066	65020.1	1
582	2070	65020.4	2
582	2076	65020.707491618685	2
582	2091	65021.060662784082	2
582	3121	97020.1	1
582	3124	97020.3	1
582	3137	97020.559115545601	1
582	3148	97020.880876335063	2
582	4160	129020.2	2
582	4164	129020.5	2
582	4168	129020.705664647147	1
582	4178	129021.031123629237	2
582	5183	161020.2	2
582	5186	161020.4	1
582	5190	161020.601108396896	1
582	5195	161020.817687137932	1
582	6224	193020.1	1
582	6228	193020.4	2
582	6232	193020.605980167123	1
582	6249	193020.870133463983	1
582	7293	225020.2	2
582	7297	225020.5	2
582	7301	225020.708728510127	1
582	7305	225020.915131454723	1
582	8309	257020.1	1
582	8313	257020.4	2
582	8319	257020.708277705119	2
582	8323	257020.913363399934	1
582	9332	289020.1	1
582	9335	289020.3	1
582	9340	289020.608784745696	2
582	9347	289020.8215308127	1
582	10360	321020.1	1
582	10363	321020.3	1
582	10368	321020.509817746541	1
582	10381	321020.761972310405	1
582	11439	353020.1	1
582	11443	353020.4	2
582	11448	353020.701234354821	2
582	11454	353020.922874930327	1
582	12469	385020.2	2
582	12472	385020.4	1
582	12476	385020.609231726038	1
582	12480	385020.814206162981	1
582	13494	417020.2	2
582	13497	417020.4	1
582	13501	417020.604770667317	1
582	13506	417020.817325106203	1
582	14569	449020.1	1
582	14574	449020.403906053605	2
582	14580	449020.712980441306	2
582	14584	449020.917057454142	1
582	15633	481020	0
582	15636	481020.2	1
582	15642	481020.415929623847	1
582	15647	481020.629034566207	1
582	16699	513020	0
582	16703	513020.3	2
582	16712	513020.53553994416	1
582	16718	513020.747893873214	1
582	17708	545020.1	1
582	17711	545020.3	1
582	17716	545020.60857285202	2
582	17720	545020.813082033376	1
582	18723	577020.1	1
582	18727	577020.4	2
582	18731	577020.607800363919	1
582	18739	577020.836139793492	1
582	19781	609020	0
582	19785	609020.3	2
582	19790	609020.510064833173	1
582	19795	609020.719943526234	1
582	20834	641020.2	2
582	20837	641020.4	1
582	20841	641020.609224394133	1
582	20845	641020.810818072477	1
582	21871	673020.1	1
582	21876	673020.40200512235	2
582	21881	673020.71196067101	2
582	21887	673021.019242383664	2
582	22936	705020.1	1
582	22939	705020.3	1
582	22943	705020.507817828799	1
582	22948	705020.713763088698	1
582	23940	737020	0
582	23943	737020.2	1
582	23947	737020.40322526935	1
582	23953	737020.621830765166	1
582	24981	769020.2	2
582	24985	769020.5	2
582	24990	769020.806625974657	2
582	24996	769021.123849464139	2
582	26019	801020	0
582	26022	801020.2	1
582	26027	801020.508025265473	2
582	26034	801020.818382399663	2
582	27045	833020.1	1
582	27049	833020.4	2
582	27059	833020.645912371803	1
582	27071	833020.986115126871	2
582	28078	865020.1	1
582	28081	865020.3	1
582	28086	865020.6020406845	2
582	28096	865020.833119591918	1
582	29134	897020.1	1
582	29139	897020.315906119523	1
582	29144	897020.523123927988	1
582	29150	897020.832598431047	2
582	30163	929020.1	1
582	30168	929020.405264297986	2
582	30172	929020.606629070873	1
582	30176	929020.814239713564	1
582	31196	961020.1	1
582	31199	961020.3	1
582	31207	961020.519492036757	1
582	31217	961020.856525539137	2
582	32229	993020.2	2
582	32232	993020.4	1
582	32238	993020.614063382792	1
582	32242	993020.815283991052	1
582	33244	1025020.2	2
582	33248	1025020.40277006299	1
582	33255	1025020.622929209017	1
582	33271	1025020.883689374279	1
582	34267	1057020	0
582	34270	1057020.2	1
582	34275	1057020.50242609316	2
582	34280	1057020.80800210596	2
582	35359	1089020.1	1
582	35363	1089020.4	2
582	35368	1089020.702167548565	2
582	35373	1089020.90327943724	1
582	36402	1121020.1	1
582	36405	1121020.3	1
582	36410	1121020.607622191961	2
582	36416	1121020.917888744069	2
582	37419	1153020.1	1
582	37424	1153020.405232098072	2
582	37433	1153020.73474870267	2
582	37442	1153021.061854214628	2
582	38486	1185020	0
582	38490	1185020.3	2
582	38494	1185020.501067214224	1
582	38499	1185020.703714130708	1
582	39511	1217020.1	1
582	39514	1217020.3	1
582	39518	1217020.501227197581	1
582	39522	1217020.705405431428	1
582	40572	1249020.2	2
582	40575	1249020.4	1
582	40581	1249020.61574046043	1
582	40587	1249020.836559421196	1
582	41622	1281020.2	2
582	41625	1281020.4	1
582	41630	1281020.608414630798	1
582	41634	1281020.810149389983	1
582	42714	1313020.1	1
582	42717	1313020.3	1
582	42721	1313020.509548409085	1
582	42725	1313020.710886097782	1
582	43741	1345020.1	1
582	43744	1345020.3	1
582	43748	1345020.502381373795	1
582	43755	1345020.729773640347	1
582	44758	1377020	0
582	44762	1377020.3	2
582	44767	1377020.601057713397	2
582	44776	1377020.920195060051	2
582	45771	1409020.1	1
582	45774	1409020.3	1
582	45779	1409020.517737817377	1
582	45785	1409020.737817818871	1
582	46791	1441020.1	1
582	46794	1441020.3	1
582	46800	1441020.5149970109	1
582	46805	1441020.720006507679	1
582	47832	1473020.1	1
582	47835	1473020.3	1
582	47839	1473020.504233243011	1
582	47845	1473020.721890450366	1
582	48869	1505020.1	1
582	48872	1505020.3	1
582	48876	1505020.507443248438	1
582	48881	1505020.717664655685	1
582	49903	1537020.1	1
582	49908	1537020.404819728764	2
582	49912	1537020.605949642722	1
582	49918	1537020.917285503652	2
582	50932	1569020.1	1
582	50935	1569020.3	1
582	50940	1569020.60875937567	2
582	50949	1569020.834965990428	1
582	51950	1601020.1	1
582	51954	1601020.4	2
582	51958	1601020.607023787978	1
582	51963	1601020.81889453554	1
582	53011	1633020.1	1
582	53015	1633020.4	2
582	53019	1633020.601282000062	1
582	53024	1633020.908932493068	2
582	54020	1665020	0
582	54024	1665020.3	2
582	54028	1665020.502705398935	1
582	54034	1665020.719040548579	1
582	55019	1697020.1	1
582	55022	1697020.3	1
582	55026	1697020.504310791338	1
582	55030	1697020.707151554591	1
582	56057	1729020.2	2
582	56060	1729020.4	1
582	56064	1729020.603705326444	1
582	56073	1729020.836839046047	1
582	57086	1761020.1	1
582	57089	1761020.3	1
582	57094	1761020.603573304447	2
582	57106	1761020.852879973415	1
582	58129	1793020.1	1
582	58133	1793020.4	2
582	58137	1793020.605272584988	1
582	58142	1793020.905277014791	2
582	59123	1825020.1	1
582	59126	1825020.3	1
582	59130	1825020.505905316437	1
582	59137	1825020.812623487381	2
582	60166	1857020.2	2
582	60169	1857020.4	1
582	60175	1857020.707099216482	2
582	60182	1857020.915906968002	1
582	61175	1889020.1	1
582	61179	1889020.302404037471	1
582	61184	1889020.611574487068	2
582	61188	1889020.820072083423	1
582	62219	1921020.1	1
582	62223	1921020.4	2
582	62228	1921020.701606912177	2
582	62232	1921020.908765059916	1
582	63264	1953020.2	2
582	63267	1953020.4	1
582	63275	1953020.615952105579	1
582	63279	1953020.824759419149	1
582	64297	1985020	0
582	64301	1985020.3	2
582	64308	1985020.604959080709	2
582	64312	1985020.807414235687	1
582	65324	2017020.1	1
582	65328	2017020.4	2
582	65332	2017020.600161734572	1
582	65337	2017020.903021405296	2
583	32	1020.1	0.875
583	35	1020.3	0.875
583	39	1020.504032563031	0.875
583	44	1020.708380976837	0.875
583	1058	33020.1	0.875
583	1062	33020.4	0.75
583	1067	33020.709730724995	0.75
583	1071	33020.917572365114	0.875
583	2066	65020.1	0.875
583	2070	65020.4	0.75
583	2076	65020.707491618685	0.75
583	2091	65021.060662784082	0.75
583	3121	97020.1	0.875
583	3124	97020.3	0.875
583	3137	97020.559115545601	0.875
583	3148	97020.880876335063	0.75
583	4160	129020.2	0.75
583	4164	129020.5	0.75
583	4168	129020.705664647147	0.875
583	4178	129021.031123629237	0.75
583	5183	161020.2	0.75
583	5186	161020.4	0.875
583	5190	161020.601108396896	0.875
583	5195	161020.817687137932	0.875
583	6224	193020.1	0.875
583	6228	193020.4	0.75
583	6232	193020.605980167123	0.875
583	6249	193020.870133463983	0.875
583	7293	225020.2	0.75
583	7297	225020.5	0.75
583	7301	225020.708728510127	0.875
583	7305	225020.915131454723	0.875
583	8309	257020.1	0.875
583	8313	257020.4	0.75
583	8319	257020.708277705119	0.75
583	8323	257020.913363399934	0.875
583	9332	289020.1	0.875
583	9335	289020.3	0.875
583	9340	289020.608784745696	0.75
583	9347	289020.8215308127	0.875
583	10360	321020.1	0.875
583	10363	321020.3	0.875
583	10368	321020.509817746541	0.875
583	10381	321020.761972310405	0.875
583	11439	353020.1	0.875
583	11443	353020.4	0.75
583	11448	353020.701234354821	0.75
583	11454	353020.922874930327	0.875
583	12469	385020.2	0.75
583	12472	385020.4	0.875
583	12476	385020.609231726038	0.875
583	12480	385020.814206162981	0.875
583	13494	417020.2	0.75
583	13497	417020.4	0.875
583	13501	417020.604770667317	0.875
583	13506	417020.817325106203	0.875
583	14569	449020.1	0.875
583	14574	449020.403906053605	0.75
583	14580	449020.712980441306	0.75
583	14584	449020.917057454142	0.875
583	15633	481020	1
583	15636	481020.2	0.875
583	15642	481020.415929623847	0.875
583	15647	481020.629034566207	0.875
583	16699	513020	1
583	16703	513020.3	0.75
583	16712	513020.53553994416	0.875
583	16718	513020.747893873214	0.875
583	17708	545020.1	0.875
583	17711	545020.3	0.875
583	17716	545020.60857285202	0.75
583	17720	545020.813082033376	0.875
583	18723	577020.1	0.875
583	18727	577020.4	0.75
583	18731	577020.607800363919	0.875
583	18739	577020.836139793492	0.875
583	19781	609020	1
583	19785	609020.3	0.75
583	19790	609020.510064833173	0.875
583	19795	609020.719943526234	0.875
583	20834	641020.2	0.75
583	20837	641020.4	0.875
583	20841	641020.609224394133	0.875
583	20845	641020.810818072477	0.875
583	21871	673020.1	0.875
583	21876	673020.40200512235	0.75
583	21881	673020.71196067101	0.75
583	21887	673021.019242383664	0.75
583	22936	705020.1	0.875
583	22939	705020.3	0.875
583	22943	705020.507817828799	0.875
583	22948	705020.713763088698	0.875
583	23940	737020	1
583	23943	737020.2	0.875
583	23947	737020.40322526935	0.875
583	23953	737020.621830765166	0.875
583	24981	769020.2	0.75
583	24985	769020.5	0.75
583	24990	769020.806625974657	0.75
583	24996	769021.123849464139	0.75
583	26019	801020	1
583	26022	801020.2	0.875
583	26027	801020.508025265473	0.75
583	26034	801020.818382399663	0.75
583	27045	833020.1	0.875
583	27049	833020.4	0.75
583	27059	833020.645912371803	0.875
583	27071	833020.986115126871	0.75
583	28078	865020.1	0.875
583	28081	865020.3	0.875
583	28086	865020.6020406845	0.75
583	28096	865020.833119591918	0.875
583	29134	897020.1	0.875
583	29139	897020.315906119523	0.875
583	29144	897020.523123927988	0.875
583	29150	897020.832598431047	0.75
583	30163	929020.1	0.875
583	30168	929020.405264297986	0.75
583	30172	929020.606629070873	0.875
583	30176	929020.814239713564	0.875
583	31196	961020.1	0.875
583	31199	961020.3	0.875
583	31207	961020.519492036757	0.875
583	31217	961020.856525539137	0.75
583	32229	993020.2	0.75
583	32232	993020.4	0.875
583	32238	993020.614063382792	0.875
583	32242	993020.815283991052	0.875
583	33244	1025020.2	0.75
583	33248	1025020.40277006299	0.875
583	33255	1025020.622929209017	0.875
583	33271	1025020.883689374279	0.875
583	34267	1057020	1
583	34270	1057020.2	0.875
583	34275	1057020.50242609316	0.75
583	34280	1057020.80800210596	0.75
583	35359	1089020.1	0.875
583	35363	1089020.4	0.75
583	35368	1089020.702167548565	0.75
583	35373	1089020.90327943724	0.875
583	36402	1121020.1	0.875
583	36405	1121020.3	0.875
583	36410	1121020.607622191961	0.75
583	36416	1121020.917888744069	0.75
583	37419	1153020.1	0.875
583	37424	1153020.405232098072	0.75
583	37433	1153020.73474870267	0.75
583	37442	1153021.061854214628	0.75
583	38486	1185020	1
583	38490	1185020.3	0.75
583	38494	1185020.501067214224	0.875
583	38499	1185020.703714130708	0.875
583	39511	1217020.1	0.875
583	39514	1217020.3	0.875
583	39518	1217020.501227197581	0.875
583	39522	1217020.705405431428	0.875
583	40572	1249020.2	0.75
583	40575	1249020.4	0.875
583	40581	1249020.61574046043	0.875
583	40587	1249020.836559421196	0.875
583	41622	1281020.2	0.75
583	41625	1281020.4	0.875
583	41630	1281020.608414630798	0.875
583	41634	1281020.810149389983	0.875
583	42714	1313020.1	0.875
583	42717	1313020.3	0.875
583	42721	1313020.509548409085	0.875
583	42725	1313020.710886097782	0.875
583	43741	1345020.1	0.875
583	43744	1345020.3	0.875
583	43748	1345020.502381373795	0.875
583	43755	1345020.729773640347	0.875
583	44758	1377020	1
583	44762	1377020.3	0.75
583	44767	1377020.601057713397	0.75
583	44776	1377020.920195060051	0.75
583	45771	1409020.1	0.875
583	45774	1409020.3	0.875
583	45779	1409020.517737817377	0.875
583	45785	1409020.737817818871	0.875
583	46791	1441020.1	0.875
583	46794	1441020.3	0.875
583	46800	1441020.5149970109	0.875
583	46805	1441020.720006507679	0.875
583	47832	1473020.1	0.875
583	47835	1473020.3	0.875
583	47839	1473020.504233243011	0.875
583	47845	1473020.721890450366	0.875
583	48869	1505020.1	0.875
583	48872	1505020.3	0.875
583	48876	1505020.507443248438	0.875
583	48881	1505020.717664655685	0.875
583	49903	1537020.1	0.875
583	49908	1537020.404819728764	0.75
583	49912	1537020.605949642722	0.875
583	49918	1537020.917285503652	0.75
583	50932	1569020.1	0.875
583	50935	1569020.3	0.875
583	50940	1569020.60875937567	0.75
583	50949	1569020.834965990428	0.875
583	51950	1601020.1	0.875
583	51954	1601020.4	0.75
583	51958	1601020.607023787978	0.875
583	51963	1601020.81889453554	0.875
583	53011	1633020.1	0.875
583	53015	1633020.4	0.75
583	53019	1633020.601282000062	0.875
583	53024	1633020.908932493068	0.75
583	54020	1665020	1
583	54024	1665020.3	0.75
583	54028	1665020.502705398935	0.875
583	54034	1665020.719040548579	0.875
583	55019	1697020.1	0.875
583	55022	1697020.3	0.875
583	55026	1697020.504310791338	0.875
583	55030	1697020.707151554591	0.875
583	56057	1729020.2	0.75
583	56060	1729020.4	0.875
583	56064	1729020.603705326444	0.875
583	56073	1729020.836839046047	0.875
583	57086	1761020.1	0.875
583	57089	1761020.3	0.875
583	57094	1761020.603573304447	0.75
583	57106	1761020.852879973415	0.875
583	58129	1793020.1	0.875
583	58133	1793020.4	0.75
583	58137	1793020.605272584988	0.875
583	58142	1793020.905277014791	0.75
583	59123	1825020.1	0.875
583	59126	1825020.3	0.875
583	59130	1825020.505905316437	0.875
583	59137	1825020.812623487381	0.75
583	60166	1857020.2	0.75
583	60169	1857020.4	0.875
583	60175	1857020.707099216482	0.75
583	60182	1857020.915906968002	0.875
583	61175	1889020.1	0.875
583	61179	1889020.302404037471	0.875
583	61184	1889020.611574487068	0.75
583	61188	1889020.820072083423	0.875
583	62219	1921020.1	0.875
583	62223	1921020.4	0.75
583	62228	1921020.701606912177	0.75
583	62232	1921020.908765059916	0.875
583	63264	1953020.2	0.75
583	63267	1953020.4	0.875
583	63275	1953020.615952105579	0.875
583	63279	1953020.824759419149	0.875
583	64297	1985020	1
583	64301	1985020.3	0.75
583	64308	1985020.604959080709	0.75
583	64312	1985020.807414235687	0.875
583	65324	2017020.1	0.875
583	65328	2017020.4	0.75
583	65332	2017020.600161734572	0.875
583	65337	2017020.903021405296	0.75
584	32	1020.1	0.1
584	35	1020.3	0.2
584	39	1020.504032563031	0.2
584	44	1020.708380976837	0.2
584	1058	33020.1	0.1
584	1062	33020.4	0.3
584	1067	33020.709730724995	0.3
584	1071	33020.917572365114	0.2
584	2066	65020.1	0.1
584	2070	65020.4	0.3
584	2076	65020.707491618685	0.3
584	2091	65021.060662784082	0.3
584	3121	97020.1	0.1
584	3124	97020.3	0.2
584	3137	97020.559115545601	0.2
584	3148	97020.880876335063	0.3
584	4160	129020.2	0.2
584	4164	129020.5	0.3
584	4168	129020.705664647147	0.2
584	4178	129021.031123629237	0.3
584	5183	161020.2	0.2
584	5186	161020.4	0.2
584	5190	161020.601108396896	0.2
584	5195	161020.817687137932	0.2
584	6224	193020.1	0.1
584	6228	193020.4	0.3
584	6232	193020.605980167123	0.2
584	6249	193020.870133463983	0.2
584	7293	225020.2	0.2
584	7297	225020.5	0.3
584	7301	225020.708728510127	0.2
584	7305	225020.915131454723	0.2
584	8309	257020.1	0.1
584	8313	257020.4	0.3
584	8319	257020.708277705119	0.3
584	8323	257020.913363399934	0.2
584	9332	289020.1	0.1
584	9335	289020.3	0.2
584	9340	289020.608784745696	0.3
584	9347	289020.8215308127	0.2
584	10360	321020.1	0.1
584	10363	321020.3	0.2
584	10368	321020.509817746541	0.2
584	10381	321020.761972310405	0.2
584	11439	353020.1	0.1
584	11443	353020.4	0.3
584	11448	353020.701234354821	0.3
584	11454	353020.922874930327	0.2
584	12469	385020.2	0.2
584	12472	385020.4	0.2
584	12476	385020.609231726038	0.2
584	12480	385020.814206162981	0.2
584	13494	417020.2	0.2
584	13497	417020.4	0.2
584	13501	417020.604770667317	0.2
584	13506	417020.817325106203	0.2
584	14569	449020.1	0.1
584	14574	449020.403906053605	0.3
584	14580	449020.712980441306	0.3
584	14584	449020.917057454142	0.2
584	15633	481020	0
584	15636	481020.2	0.2
584	15642	481020.415929623847	0.2
584	15647	481020.629034566207	0.2
584	16699	513020	0
584	16703	513020.3	0.3
584	16712	513020.53553994416	0.2
584	16718	513020.747893873214	0.2
584	17708	545020.1	0.1
584	17711	545020.3	0.2
584	17716	545020.60857285202	0.3
584	17720	545020.813082033376	0.2
584	18723	577020.1	0.1
584	18727	577020.4	0.3
584	18731	577020.607800363919	0.2
584	18739	577020.836139793492	0.2
584	19781	609020	0
584	19785	609020.3	0.3
584	19790	609020.510064833173	0.2
584	19795	609020.719943526234	0.2
584	20834	641020.2	0.2
584	20837	641020.4	0.2
584	20841	641020.609224394133	0.2
584	20845	641020.810818072477	0.2
584	21871	673020.1	0.1
584	21876	673020.40200512235	0.3
584	21881	673020.71196067101	0.3
584	21887	673021.019242383664	0.3
584	22936	705020.1	0.1
584	22939	705020.3	0.2
584	22943	705020.507817828799	0.2
584	22948	705020.713763088698	0.2
584	23940	737020	0
584	23943	737020.2	0.2
584	23947	737020.40322526935	0.2
584	23953	737020.621830765166	0.2
584	24981	769020.2	0.2
584	24985	769020.5	0.3
584	24990	769020.806625974657	0.3
584	24996	769021.123849464139	0.3
584	26019	801020	0
584	26022	801020.2	0.2
584	26027	801020.508025265473	0.3
584	26034	801020.818382399663	0.3
584	27045	833020.1	0.1
584	27049	833020.4	0.3
584	27059	833020.645912371803	0.2
584	27071	833020.986115126871	0.3
584	28078	865020.1	0.1
584	28081	865020.3	0.2
584	28086	865020.6020406845	0.3
584	28096	865020.833119591918	0.2
584	29134	897020.1	0.1
584	29139	897020.315906119523	0.2
584	29144	897020.523123927988	0.2
584	29150	897020.832598431047	0.3
584	30163	929020.1	0.1
584	30168	929020.405264297986	0.3
584	30172	929020.606629070873	0.2
584	30176	929020.814239713564	0.2
584	31196	961020.1	0.1
584	31199	961020.3	0.2
584	31207	961020.519492036757	0.2
584	31217	961020.856525539137	0.3
584	32229	993020.2	0.2
584	32232	993020.4	0.2
584	32238	993020.614063382792	0.2
584	32242	993020.815283991052	0.2
584	33244	1025020.2	0.2
584	33248	1025020.40277006299	0.2
584	33255	1025020.622929209017	0.2
584	33271	1025020.883689374279	0.2
584	34267	1057020	0
584	34270	1057020.2	0.2
584	34275	1057020.50242609316	0.3
584	34280	1057020.80800210596	0.3
584	35359	1089020.1	0.1
584	35363	1089020.4	0.3
584	35368	1089020.702167548565	0.3
584	35373	1089020.90327943724	0.2
584	36402	1121020.1	0.1
584	36405	1121020.3	0.2
584	36410	1121020.607622191961	0.3
584	36416	1121020.917888744069	0.3
584	37419	1153020.1	0.1
584	37424	1153020.405232098072	0.3
584	37433	1153020.73474870267	0.3
584	37442	1153021.061854214628	0.3
584	38486	1185020	0
584	38490	1185020.3	0.3
584	38494	1185020.501067214224	0.2
584	38499	1185020.703714130708	0.2
584	39511	1217020.1	0.1
584	39514	1217020.3	0.2
584	39518	1217020.501227197581	0.2
584	39522	1217020.705405431428	0.2
584	40572	1249020.2	0.2
584	40575	1249020.4	0.2
584	40581	1249020.61574046043	0.2
584	40587	1249020.836559421196	0.2
584	41622	1281020.2	0.2
584	41625	1281020.4	0.2
584	41630	1281020.608414630798	0.2
584	41634	1281020.810149389983	0.2
584	42714	1313020.1	0.1
584	42717	1313020.3	0.2
584	42721	1313020.509548409085	0.2
584	42725	1313020.710886097782	0.2
584	43741	1345020.1	0.1
584	43744	1345020.3	0.2
584	43748	1345020.502381373795	0.2
584	43755	1345020.729773640347	0.2
584	44758	1377020	0
584	44762	1377020.3	0.3
584	44767	1377020.601057713397	0.3
584	44776	1377020.920195060051	0.3
584	45771	1409020.1	0.1
584	45774	1409020.3	0.2
584	45779	1409020.517737817377	0.2
584	45785	1409020.737817818871	0.2
584	46791	1441020.1	0.1
584	46794	1441020.3	0.2
584	46800	1441020.5149970109	0.2
584	46805	1441020.720006507679	0.2
584	47832	1473020.1	0.1
584	47835	1473020.3	0.2
584	47839	1473020.504233243011	0.2
584	47845	1473020.721890450366	0.2
584	48869	1505020.1	0.1
584	48872	1505020.3	0.2
584	48876	1505020.507443248438	0.2
584	48881	1505020.717664655685	0.2
584	49903	1537020.1	0.1
584	49908	1537020.404819728764	0.3
584	49912	1537020.605949642722	0.2
584	49918	1537020.917285503652	0.3
584	50932	1569020.1	0.1
584	50935	1569020.3	0.2
584	50940	1569020.60875937567	0.3
584	50949	1569020.834965990428	0.2
584	51950	1601020.1	0.1
584	51954	1601020.4	0.3
584	51958	1601020.607023787978	0.2
584	51963	1601020.81889453554	0.2
584	53011	1633020.1	0.1
584	53015	1633020.4	0.3
584	53019	1633020.601282000062	0.2
584	53024	1633020.908932493068	0.3
584	54020	1665020	0
584	54024	1665020.3	0.3
584	54028	1665020.502705398935	0.2
584	54034	1665020.719040548579	0.2
584	55019	1697020.1	0.1
584	55022	1697020.3	0.2
584	55026	1697020.504310791338	0.2
584	55030	1697020.707151554591	0.2
584	56057	1729020.2	0.2
584	56060	1729020.4	0.2
584	56064	1729020.603705326444	0.2
584	56073	1729020.836839046047	0.2
584	57086	1761020.1	0.1
584	57089	1761020.3	0.2
584	57094	1761020.603573304447	0.3
584	57106	1761020.852879973415	0.2
584	58129	1793020.1	0.1
584	58133	1793020.4	0.3
584	58137	1793020.605272584988	0.2
584	58142	1793020.905277014791	0.3
584	59123	1825020.1	0.1
584	59126	1825020.3	0.2
584	59130	1825020.505905316437	0.2
584	59137	1825020.812623487381	0.3
584	60166	1857020.2	0.2
584	60169	1857020.4	0.2
584	60175	1857020.707099216482	0.3
584	60182	1857020.915906968002	0.2
584	61175	1889020.1	0.1
584	61179	1889020.302404037471	0.2
584	61184	1889020.611574487068	0.3
584	61188	1889020.820072083423	0.2
584	62219	1921020.1	0.1
584	62223	1921020.4	0.3
584	62228	1921020.701606912177	0.3
584	62232	1921020.908765059916	0.2
584	63264	1953020.2	0.2
584	63267	1953020.4	0.2
584	63275	1953020.615952105579	0.2
584	63279	1953020.824759419149	0.2
584	64297	1985020	0
584	64301	1985020.3	0.3
584	64308	1985020.604959080709	0.3
584	64312	1985020.807414235687	0.2
584	65324	2017020.1	0.1
584	65328	2017020.4	0.3
584	65332	2017020.600161734572	0.2
584	65337	2017020.903021405296	0.3
585	60	2020	0
585	63	2020.2	1
585	70	2020.520001412055	2
585	76	2020.830433650207	2
585	1089	34020.2	2
585	1093	34020.5	2
585	1099	34020.71833581586	1
585	1103	34020.921870001175	1
585	2109	66020.2	2
585	2112	66020.4	1
585	2116	66020.606348298464	1
585	2121	66020.813493345956	1
585	3165	98020.1	1
585	3172	98020.315905784986	1
585	3177	98020.525212755925	1
585	3181	98020.72859481706	1
585	4195	130020.1	1
585	4199	130020.4	2
585	4204	130020.701152166023	2
585	4211	130021.024405107266	2
585	5213	162020.2	2
585	5217	162020.5	2
585	5227	162020.841566906195	2
585	5233	162021.056243763512	1
585	6267	194020.2	2
585	6270	194020.4	1
585	6280	194020.733032946228	2
585	6287	194020.954453723848	1
585	7322	226020.1	1
585	7325	226020.3	1
585	7330	226020.509143081686	1
585	7337	226020.729880327168	1
585	8341	258020.2	2
585	8347	258020.414503619958	1
585	8352	258020.723868913201	2
585	8361	258020.95889124192	1
585	9364	290020.1	1
585	9368	290020.307462190061	1
585	9372	290020.512417348823	1
585	9377	290020.722154905235	1
585	10398	322020.1	1
585	10402	322020.4	2
585	10407	322020.705942341501	2
585	10413	322020.920801252563	1
585	11471	354020.1	1
585	11475	354020.4	2
585	11480	354020.708078985291	2
585	11485	354021.008881491145	2
585	12498	386020.2	2
585	12502	386020.5	2
585	12506	386020.709225836566	1
585	12512	386021.024805777049	2
585	13523	418020.1	1
585	13527	418020.4	2
585	13531	418020.607234672873	1
585	13536	418020.815590364722	1
585	14600	450020	0
585	14605	450020.305270478751	2
585	14611	450020.61376282307	2
585	14618	450020.83502293853	1
585	15664	482020.1	1