version 2
run Stability-93-20130526-18:53:20-1898
attr configname Stability
attr datetime 20130526-18:53:20
attr experiment Stability
attr inifile omnetpp.ini
attr iterationvars $0=1e-3
attr iterationvars2 "$0=1e-3, $repetition=3"
attr measurement $0=1e-3
attr network Network
attr processid 1898
attr repetition 3
attr replication #3
attr resultdir results
attr runnumber 93
attr seedset 93

vector 9117  Network.churner  inGoingSizeSig:vector  ETV
vector 9042  Network.dyn_peer[7]  lookupHopsSig:vector  ETV
vector 9043  Network.dyn_peer[7]  lookupStabilitySig:vector  ETV
vector 9044  Network.dyn_peer[7]  lookupTimeSig:vector  ETV
vector 9081  Network.dyn_peer[20]  lookupHopsSig:vector  ETV
vector 9082  Network.dyn_peer[20]  lookupStabilitySig:vector  ETV
vector 9083  Network.dyn_peer[20]  lookupTimeSig:vector  ETV
vector 9084  Network.dyn_peer[21]  lookupHopsSig:vector  ETV
vector 9085  Network.dyn_peer[21]  lookupStabilitySig:vector  ETV
vector 9086  Network.dyn_peer[21]  lookupTimeSig:vector  ETV
vector 9102  Network.dyn_peer[27]  lookupHopsSig:vector  ETV
vector 9103  Network.dyn_peer[27]  lookupStabilitySig:vector  ETV
vector 9104  Network.dyn_peer[27]  lookupTimeSig:vector  ETV
vector 9114  Network.dyn_peer[31]  lookupHopsSig:vector  ETV
vector 9115  Network.dyn_peer[31]  lookupStabilitySig:vector  ETV
vector 9116  Network.dyn_peer[31]  lookupTimeSig:vector  ETV
vector 9024  Network.dyn_peer[1]  lookupHopsSig:vector  ETV
vector 9025  Network.dyn_peer[1]  lookupStabilitySig:vector  ETV
vector 9026  Network.dyn_peer[1]  lookupTimeSig:vector  ETV
vector 9036  Network.dyn_peer[5]  lookupHopsSig:vector  ETV
vector 9037  Network.dyn_peer[5]  lookupStabilitySig:vector  ETV
vector 9038  Network.dyn_peer[5]  lookupTimeSig:vector  ETV
vector 9045  Network.dyn_peer[8]  lookupHopsSig:vector  ETV
vector 9046  Network.dyn_peer[8]  lookupStabilitySig:vector  ETV
vector 9047  Network.dyn_peer[8]  lookupTimeSig:vector  ETV
vector 9048  Network.dyn_peer[9]  lookupHopsSig:vector  ETV
vector 9049  Network.dyn_peer[9]  lookupStabilitySig:vector  ETV
vector 9050  Network.dyn_peer[9]  lookupTimeSig:vector  ETV
vector 9078  Network.dyn_peer[19]  lookupHopsSig:vector  ETV
vector 9079  Network.dyn_peer[19]  lookupStabilitySig:vector  ETV
vector 9080  Network.dyn_peer[19]  lookupTimeSig:vector  ETV
vector 9099  Network.dyn_peer[26]  lookupHopsSig:vector  ETV
vector 9100  Network.dyn_peer[26]  lookupStabilitySig:vector  ETV
vector 9101  Network.dyn_peer[26]  lookupTimeSig:vector  ETV
vector 9021  Network.dyn_peer[0]  lookupHopsSig:vector  ETV
vector 9022  Network.dyn_peer[0]  lookupStabilitySig:vector  ETV
vector 9023  Network.dyn_peer[0]  lookupTimeSig:vector  ETV
vector 9039  Network.dyn_peer[6]  lookupHopsSig:vector  ETV
vector 9040  Network.dyn_peer[6]  lookupStabilitySig:vector  ETV
vector 9041  Network.dyn_peer[6]  lookupTimeSig:vector  ETV
vector 9051  Network.dyn_peer[10]  lookupHopsSig:vector  ETV
vector 9052  Network.dyn_peer[10]  lookupStabilitySig:vector  ETV
vector 9053  Network.dyn_peer[10]  lookupTimeSig:vector  ETV
vector 9054  Network.dyn_peer[11]  lookupHopsSig:vector  ETV
vector 9055  Network.dyn_peer[11]  lookupStabilitySig:vector  ETV
vector 9056  Network.dyn_peer[11]  lookupTimeSig:vector  ETV
vector 9063  Network.dyn_peer[14]  lookupHopsSig:vector  ETV
vector 9064  Network.dyn_peer[14]  lookupStabilitySig:vector  ETV
vector 9065  Network.dyn_peer[14]  lookupTimeSig:vector  ETV
vector 9066  Network.dyn_peer[15]  lookupHopsSig:vector  ETV
vector 9067  Network.dyn_peer[15]  lookupStabilitySig:vector  ETV
vector 9068  Network.dyn_peer[15]  lookupTimeSig:vector  ETV
vector 9075  Network.dyn_peer[18]  lookupHopsSig:vector  ETV
vector 9076  Network.dyn_peer[18]  lookupStabilitySig:vector  ETV
vector 9077  Network.dyn_peer[18]  lookupTimeSig:vector  ETV
vector 9087  Network.dyn_peer[22]  lookupHopsSig:vector  ETV
vector 9088  Network.dyn_peer[22]  lookupStabilitySig:vector  ETV
vector 9089  Network.dyn_peer[22]  lookupTimeSig:vector  ETV
vector 9093  Network.dyn_peer[24]  lookupHopsSig:vector  ETV
vector 9094  Network.dyn_peer[24]  lookupStabilitySig:vector  ETV
vector 9095  Network.dyn_peer[24]  lookupTimeSig:vector  ETV
vector 9057  Network.dyn_peer[12]  lookupHopsSig:vector  ETV
vector 9058  Network.dyn_peer[12]  lookupStabilitySig:vector  ETV
vector 9059  Network.dyn_peer[12]  lookupTimeSig:vector  ETV
vector 9072  Network.dyn_peer[17]  lookupHopsSig:vector  ETV
vector 9073  Network.dyn_peer[17]  lookupStabilitySig:vector  ETV
vector 9074  Network.dyn_peer[17]  lookupTimeSig:vector  ETV
vector 9090  Network.dyn_peer[23]  lookupHopsSig:vector  ETV
vector 9091  Network.dyn_peer[23]  lookupStabilitySig:vector  ETV
vector 9092  Network.dyn_peer[23]  lookupTimeSig:vector  ETV
vector 9105  Network.dyn_peer[28]  lookupHopsSig:vector  ETV
vector 9106  Network.dyn_peer[28]  lookupStabilitySig:vector  ETV
vector 9107  Network.dyn_peer[28]  lookupTimeSig:vector  ETV
vector 9111  Network.dyn_peer[30]  lookupHopsSig:vector  ETV
vector 9112  Network.dyn_peer[30]  lookupStabilitySig:vector  ETV
vector 9113  Network.dyn_peer[30]  lookupTimeSig:vector  ETV
vector 9027  Network.dyn_peer[2]  lookupHopsSig:vector  ETV
vector 9028  Network.dyn_peer[2]  lookupStabilitySig:vector  ETV
vector 9029  Network.dyn_peer[2]  lookupTimeSig:vector  ETV
vector 9030  Network.dyn_peer[3]  lookupHopsSig:vector  ETV
vector 9031  Network.dyn_peer[3]  lookupStabilitySig:vector  ETV
vector 9032  Network.dyn_peer[3]  lookupTimeSig:vector  ETV
vector 9033  Network.dyn_peer[4]  lookupHopsSig:vector  ETV
vector 9034  Network.dyn_peer[4]  lookupStabilitySig:vector  ETV
vector 9035  Network.dyn_peer[4]  lookupTimeSig:vector  ETV
vector 9060  Network.dyn_peer[13]  lookupHopsSig:vector  ETV
vector 9061  Network.dyn_peer[13]  lookupStabilitySig:vector  ETV
vector 9062  Network.dyn_peer[13]  lookupTimeSig:vector  ETV
vector 9069  Network.dyn_peer[16]  lookupHopsSig:vector  ETV
vector 9070  Network.dyn_peer[16]  lookupStabilitySig:vector  ETV
vector 9071  Network.dyn_peer[16]  lookupTimeSig:vector  ETV
vector 9108  Network.dyn_peer[29]  lookupHopsSig:vector  ETV
vector 9109  Network.dyn_peer[29]  lookupStabilitySig:vector  ETV
vector 9110  Network.dyn_peer[29]  lookupTimeSig:vector  ETV
vector 9096  Network.dyn_peer[25]  lookupHopsSig:vector  ETV
vector 9097  Network.dyn_peer[25]  lookupStabilitySig:vector  ETV
vector 9098  Network.dyn_peer[25]  lookupTimeSig:vector  ETV
9021	204	20.200001	2
9021	557	20.800001	5
9021	1024	21.30178325014	5
9021	1655	21.80178325014	4
9021	2394	22.407005254566	5
9021	2422	22.412752137994	5
9021	2468	22.420574096455	1
9021	2791	22.627058705961	2
9021	3189	22.929145375954	2
9021	3405	23.036307273696	1
9021	3487	23.125528704674	1
9021	4028	23.538411752383	4
9021	4673	24.143469200649	6
9021	4904	24.343469200649	1
9021	5116	24.531701531603	1
9021	5476	24.841202715725	3
9021	5492	24.847618419733	4
9021	5528	24.923785597447	2
9021	5713	25.031176808501	1
9021	6284	25.431176808501	3
9021	7135	25.939083647952	4
9021	7380	26.141946757098	1
9021	8734	27.351095509404	12
9021	9256	27.851095509404	4
9021	9487	28.057457168501	1
9021	9897	28.375553103013	3
9021	10158	28.575751362313	1
9021	10592	28.976746899436	4
9021	11289	29.676746899436	7
9021	12317	30.376847899436	9
9021	13523	31.276847899436	8
9021	13816	31.485033651398	3
9021	14361	31.992791058743	4
9021	14380	31.999359103838	6
9021	15878	33.189305136457	3
9021	16477	33.689305136457	4
9021	16849	33.990984817272	2
9021	16985	34.055458121944	4
9021	17469	34.462577436858	4
9021	17787	34.762577436858	2
9021	18026	34.974812672395	1
9021	18166	35.096218171701	1
9021	18234	35.157727457164	1
9021	20171	36.761115525208	16
9021	20999	37.461115525208	6
9021	22082	38.465714133332	10
9021	22874	39.181212102307	5
9021	23249	39.493111521351	3
9021	23351	39.582060928764	10
9021	23591	39.785712973116	4
9021	24339	40.392117695939	6
9021	25208	41.192117695939	8
9021	25584	41.499481297629	2
9021	25763	41.631038617106	2
9021	25802	41.662143355872	2
9021	25996	41.770984371388	1
9021	26421	42.070984371388	2
9021	26874	42.386070568755	2
9021	27373	42.730544787123	2
9021	27575	42.889310598401	5
9021	27696	42.938656653586	1
9021	28256	43.438757653586	6
9021	28816	44.044933292505	5
9021	29117	44.351491334487	2
9021	29290	44.506896713795	5
9021	29583	44.810800664822	4
9021	30120	45.310800664822	4
9021	31046	46.216674976692	9
9021	31199	46.326308227238	0
9021	31485	46.534523737543	1
9021	31945	46.944144948262	3
9021	32188	47.147317440167	1
9021	32850	47.653623516363	4
9021	32993	47.763121330286	1
9021	33605	48.165573832487	3
9021	33902	48.370226610227	2
9021	34730	49.074130264159	7
9021	35017	49.274130264159	1
9021	36307	50.483767104945	12
9021	36623	50.783767104945	2
9021	36996	51.091078686464	2
9021	37012	51.099323157964	2
9021	37032	51.100003305344	0
9021	37698	51.700003305344	5
9021	37872	51.860367981278	6
9021	38809	52.568004746791	8
9021	39168	52.868004746791	4
9021	39773	53.374049489283	4
9021	40434	53.998777972482	2
9021	40508	54.076519761885	7
9021	41333	54.879131938414	8
9021	41622	55.179131938414	2
9021	41867	55.386629595464	1
9021	41910	55.416049266707	1
9021	42254	55.716949359542	2
9021	42331	55.792394708277	3
9021	43310	56.500404350468	7
9021	44492	57.500404350468	11
9021	44619	57.600505350468	1
9021	45058	58.000505350468	3
9021	45421	58.306664727947	3
9021	45641	58.509293712193	1
9021	46200	59.012903050307	4
9021	47409	59.915606549962	12
9021	47818	60.215606549962	2
9021	48033	60.424765800945	1
9021	48530	60.932303820849	5
9021	49606	61.84675549981	5
9021	50036	62.24675549981	4
9021	50259	62.454955290665	1
9021	50631	62.766129303687	2
9021	50813	62.886368228094	1
9021	50927	62.973800863526	1
9021	51080	63.080428865156	2
9021	51112	63.09608649138	2
9021	51130	63.096939231129	0
9021	51739	63.596939231129	5
9021	51745	63.605611460719	5
9021	51905	63.777565346395	4
9021	52068	63.899070197618	2
9021	52080	63.909005605601	2
9021	52385	64.184229168074	3
9021	52440	64.218875376674	2
9021	52655	64.38446081373	2
9021	52877	64.600992339128	1
9021	52898	64.606810280233	6
9021	53157	64.824026157128	11
9021	53343	64.988292143331	7
9021	53442	65.025531529663	1
9021	53563	65.111508511679	4
9021	53572	65.117882864023	4
9021	53705	65.217983864023	1
9021	53958	65.417983864023	2
9021	54199	65.618084864023	2
9021	54926	66.118084864023	4
9021	55557	66.532772870192	3
9021	55566	66.56095315641	3
9021	56135	66.961231368923	4
9021	56333	67.107370182416	0
9021	57459	68.302948815413	7
9021	57712	68.507370182416	14
9021	58163	68.912789068681	3
9021	58853	69.413665467709	5
9021	59289	69.713665467709	2
9021	59783	70.019285453647	3
9021	60236	70.330535340448	2
9021	60903	70.832965222156	4
9021	60966	70.851350964377	5
9021	61262	71.062671223341	4
9021	61489	71.254487916293	3
9021	61563	71.333617595987	5
9021	61708	71.439392071406	1
9021	62085	71.739392071406	3
9021	62454	72.047393914917	3
9021	63539	72.948065030294	8
9021	63971	73.352056461085	1
9021	64154	73.549203108915	6
9021	64696	74.057878439193	5
9021	65667	74.891261477584	5
9021	65964	75.098069544219	1
9021	66337	75.431618439201	1
9021	66468	75.542198184406	0
9021	66926	75.947570243148	3
9021	67168	76.147671243148	2
9021	67665	76.604937809605	1
9021	67761	76.709080588003	1
9021	67926	76.856393804086	7
9021	68161	77.016409470064	2
9021	68175	77.024121180944	2
9021	68597	77.432664229933	4
9021	70350	78.832664229933	14
9021	70659	79.141693971925	3
9021	71015	79.461686854128	6
9021	71222	79.65986110587	6
9021	71305	79.763676703074	2
9021	71882	80.369906818605	6
9021	72054	80.569906818605	1
9021	72731	81.235085147649	2
9021	73007	81.440573235283	2
9021	73813	82.040573235283	5
9021	74578	82.646405349955	6
9021	75043	83.046405349955	3
9021	75768	83.637771771523	4
9021	76263	84.037771771523	3
9021	76982	84.646794784952	5
9021	77503	85.032954244237	5
9021	77569	85.050126175371	3
9021	77760	85.176232644856	3
9021	78862	86.076333644856	9
9021	79375	86.576333644856	5
9021	81544	88.376434644856	20
9021	81812	88.683793217048	3
9021	82234	88.985929139584	2
9021	82342	89.094777196818	2
9021	82449	89.197386539344	1
9021	82708	89.406953564146	3
9021	83138	89.784482800163	2
9021	83847	90.392107576337	6
9021	84996	91.292107576337	10
9021	85873	91.899293743912	5
9021	86125	92.104980296755	1
9021	86131	92.106661082909	6
9021	86764	92.515970535576	2
9021	87111	92.815217609418	7
9021	87123	92.816315809665	7
9021	87130	92.820660387281	2
9021	87765	93.421205045952	6
9021	88549	94.032936515495	1
9021	89038	94.432936515495	3
9021	89290	94.635419478419	1
9021	90712	95.836705315056	12
9021	91181	96.236705315056	3
9021	91335	96.344605367231	1
9021	92401	97.329294427144	2
9021	92658	97.529294427144	2
9021	92866	97.686772613549	1
9021	93437	98.09329968179	4
9021	93957	98.49329968179	3
9021	94574	98.980152184165	3
9021	94815	99.194449089263	8
9021	94957	99.299345107237	1
9021	95059	99.381705715116	3
9021	95652	99.786286999985	3
9021	96073	100.106634592162	9
9021	96094	100.140620411487	4
9021	96787	100.648146092494	6
9021	98414	102.048146092494	15
9021	98575	102.148247092494	1
9021	99154	102.648247092494	4
9021	99576	102.955329559207	2
9021	99883	103.167759862999	3
9021	100435	103.563830436043	6
9021	100473	103.573437156386	0
9021	101372	104.373437156386	7
9021	101597	104.577523864428	2
9021	102031	104.915075930298	5
9021	102144	105.022665020526	8
9021	102794	105.528951207583	5
9021	103723	106.428951207583	8
9021	103859	106.564863239133	7
9021	104336	106.979354356119	3
9021	104390	107.018754969178	2
9021	104427	107.037066273528	6
9021	105303	107.838311292418	8
9021	105630	108.138311292418	2
9021	105843	108.351930586706	1
9021	106380	108.761760669153	4
9021	106751	109.061760669153	2
9021	106910	109.245036518022	2
9021	107180	109.56750963537	4
9021	107731	110.046106294859	7
9021	107802	110.136141869053	4
9021	108198	110.444458290351	3
9021	108888	111.044458290351	8
9021	109639	111.748786818916	6
9021	110146	112.157875479678	3
9021	110843	112.781559037683	6
9021	110978	112.882658295799	0
9021	111038	112.958735575028	7
9021	111369	113.206187472251	8
9021	111535	113.367699504512	3
9021	112106	113.767800504512	5
9021	112451	114.067800504512	2
9021	112735	114.369820156947	2
9021	113129	114.679138963799	2
9021	113196	114.718411182518	2
9021	113692	115.186933852309	4
9021	114215	115.599269915423	3
9021	114920	116.220396887558	15
9021	115154	116.422159181398	1
9021	115170	116.425103125627	0
9021	115570	116.825103125627	3
9021	116126	117.33308403744	6
9021	116559	117.68512509366	0
9021	117460	118.38512509366	7
9021	118222	118.991860952495	7
9021	118614	119.300553425037	2
9021	118690	119.35769713939	9
9021	118924	119.518703235907	1
9021	119444	119.870527397624	4
9021	119957	120.370628397624	5
9021	121482	121.570628397624	12
9021	122009	121.978019027166	3
9021	122251	122.18357667519	2
9021	122287	122.189513493461	2
9021	122578	122.425277881823	7
9021	122825	122.625975198303	2
9021	123297	122.977705892213	1
9021	123320	122.984952781352	1
9021	123752	123.285053781352	3
9021	124011	123.485053781352	1
9021	124371	123.785507318762	1
9021	124741	124.139140898523	1
9021	124880	124.294075959417	9
9021	125165	124.494176959417	2
9021	127909	126.773189582189	16
9021	128292	127.073189582189	2
9021	128792	127.480577584712	3
9021	129581	128.088599580437	5
9021	130123	128.494795173512	4
9021	130620	128.867887848993	6
9021	130767	128.999513629053	4
9021	131094	129.304963453975	2
9021	131212	129.392590269542	5
9021	132091	130.094499162637	7
9021	132316	130.294499162637	1
9021	132705	130.702244682923	3
9021	133344	131.311949376485	6
9021	134591	132.611949376485	14
9021	135385	133.41410791683	7
9022	204	20.200001	0.75
9022	557	20.800001	0.375
9022	1024	21.30178325014	0.375
9022	1655	21.80178325014	0.5
9022	2394	22.407005254566	0.375
9022	2422	22.412752137994	0.375
9022	2468	22.420574096455	0.875
9022	2791	22.627058705961	0.75
9022	3189	22.929145375954	0.75
9022	3405	23.036307273696	0.875
9022	3487	23.125528704674	0.875
9022	4028	23.538411752383	0.5
9022	4673	24.143469200649	0.25
9022	4904	24.343469200649	0.875
9022	5116	24.531701531603	0.875
9022	5476	24.841202715725	0.625
9022	5492	24.847618419733	0.5
9022	5528	24.923785597447	0.75
9022	5713	25.031176808501	0.875
9022	6284	25.431176808501	0.625
9022	7135	25.939083647952	0.5
9022	7380	26.141946757098	0.875
9022	8734	27.351095509404	-0.5
9022	9256	27.851095509404	0.5
9022	9487	28.057457168501	0.875
9022	9897	28.375553103013	0.625
9022	10158	28.575751362313	0.875
9022	10592	28.976746899436	0.5
9022	11289	29.676746899436	0.125
9022	12317	30.376847899436	-0.125
9022	13523	31.276847899436	0
9022	13816	31.485033651398	0.625
9022	14361	31.992791058743	0.5
9022	14380	31.999359103838	0.25
9022	15878	33.189305136457	0.625
9022	16477	33.689305136457	0.5
9022	16849	33.990984817272	0.75
9022	16985	34.055458121944	0.5
9022	17469	34.462577436858	0.5
9022	17787	34.762577436858	0.75
9022	18026	34.974812672395	0.875
9022	18166	35.096218171701	0.875
9022	18234	35.157727457164	0.875
9022	20171	36.761115525208	-1
9022	20999	37.461115525208	0.25
9022	22082	38.465714133332	-0.25
9022	22874	39.181212102307	0.375
9022	23249	39.493111521351	0.625
9022	23351	39.582060928764	-0.25
9022	23591	39.785712973116	0.5
9022	24339	40.392117695939	0.25
9022	25208	41.192117695939	0
9022	25584	41.499481297629	0.75
9022	25763	41.631038617106	0.75
9022	25802	41.662143355872	0.75
9022	25996	41.770984371388	0.875
9022	26421	42.070984371388	0.75
9022	26874	42.386070568755	0.75
9022	27373	42.730544787123	0.75
9022	27575	42.889310598401	0.375
9022	27696	42.938656653586	0.875
9022	28256	43.438757653586	0.25
9022	28816	44.044933292505	0.375
9022	29117	44.351491334487	0.75
9022	29290	44.506896713795	0.375
9022	29583	44.810800664822	0.5
9022	30120	45.310800664822	0.5
9022	31046	46.216674976692	-0.125
9022	31199	46.326308227238	1
9022	31485	46.534523737543	0.875
9022	31945	46.944144948262	0.625
9022	32188	47.147317440167	0.875
9022	32850	47.653623516363	0.5
9022	32993	47.763121330286	0.875
9022	33605	48.165573832487	0.625
9022	33902	48.370226610227	0.75
9022	34730	49.074130264159	0.125
9022	35017	49.274130264159	0.875
9022	36307	50.483767104945	-0.5
9022	36623	50.783767104945	0.75
9022	36996	51.091078686464	0.75
9022	37012	51.099323157964	0.75
9022	37032	51.100003305344	1
9022	37698	51.700003305344	0.375
9022	37872	51.860367981278	0.25
9022	38809	52.568004746791	0
9022	39168	52.868004746791	0.5
9022	39773	53.374049489283	0.5
9022	40434	53.998777972482	0.75
9022	40508	54.076519761885	0.125
9022	41333	54.879131938414	0
9022	41622	55.179131938414	0.75
9022	41867	55.386629595464	0.875
9022	41910	55.416049266707	0.875
9022	42254	55.716949359542	0.75
9022	42331	55.792394708277	0.625
9022	43310	56.500404350468	0.125
9022	44492	57.500404350468	-0.375
9022	44619	57.600505350468	0.875
9022	45058	58.000505350468	0.66666665673256
9022	45421	58.306664727947	0.625
9022	45641	58.509293712193	0.875
9022	46200	59.012903050307	0.5
9022	47409	59.915606549962	-0.5
9022	47818	60.215606549962	0.75
9022	48033	60.424765800945	0.875
9022	48530	60.932303820849	0.375
9022	49606	61.84675549981	0.375
9022	50036	62.24675549981	0.5
9022	50259	62.454955290665	0.875
9022	50631	62.766129303687	0.75
9022	50813	62.886368228094	0.875
9022	50927	62.973800863526	0.875
9022	51080	63.080428865156	0.75
9022	51112	63.09608649138	0.75
9022	51130	63.096939231129	1
9022	51739	63.596939231129	0.375
9022	51745	63.605611460719	0.375
9022	51905	63.777565346395	0.5
9022	52068	63.899070197618	0.75
9022	52080	63.909005605601	0.75
9022	52385	64.184229168074	0.625
9022	52440	64.218875376674	0.75
9022	52655	64.38446081373	0.75
9022	52877	64.600992339128	0.875
9022	52898	64.606810280233	0.25
9022	53157	64.824026157128	-0.375
9022	53343	64.988292143331	0.125
9022	53442	65.025531529663	0.875
9022	53563	65.111508511679	0.5
9022	53572	65.117882864023	0.5
9022	53705	65.217983864023	0.875
9022	53958	65.417983864023	0.75
9022	54199	65.618084864023	0.75
9022	54926	66.118084864023	0.5
9022	55557	66.532772870192	0.625
9022	55566	66.56095315641	0.625
9022	56135	66.961231368923	0.5
9022	56333	67.107370182416	1
9022	57459	68.302948815413	0.125
9022	57712	68.507370182416	-0.75
9022	58163	68.912789068681	0.625
9022	58853	69.413665467709	0.375
9022	59289	69.713665467709	0.75
9022	59783	70.019285453647	0.625
9022	60236	70.330535340448	0.75
9022	60903	70.832965222156	0.5
9022	60966	70.851350964377	0.375
9022	61262	71.062671223341	0.5
9022	61489	71.254487916293	0.625
9022	61563	71.333617595987	0.375
9022	61708	71.439392071406	0.875
9022	62085	71.739392071406	0.625
9022	62454	72.047393914917	0.625
9022	63539	72.948065030294	0
9022	63971	73.352056461085	0.875
9022	64154	73.549203108915	0.25
9022	64696	74.057878439193	0.375
9022	65667	74.891261477584	0.375
9022	65964	75.098069544219	0.875
9022	66337	75.431618439201	0.875
9022	66468	75.542198184406	1
9022	66926	75.947570243148	0.625
9022	67168	76.147671243148	0.75
9022	67665	76.604937809605	0.875
9022	67761	76.709080588003	0.875
9022	67926	76.856393804086	0.125
9022	68161	77.016409470064	0.75
9022	68175	77.024121180944	0.75
9022	68597	77.432664229933	0.5
9022	70350	78.832664229933	-0.75
9022	70659	79.141693971925	0.625
9022	71015	79.461686854128	0.25
9022	71222	79.65986110587	0.25
9022	71305	79.763676703074	0.75
9022	71882	80.369906818605	0.25
9022	72054	80.569906818605	0.875
9022	72731	81.235085147649	0.75
9022	73007	81.440573235283	0.75
9022	73813	82.040573235283	0.375
9022	74578	82.646405349955	0.25
9022	75043	83.046405349955	0.625
9022	75768	83.637771771523	0.5
9022	76263	84.037771771523	0.625
9022	76982	84.646794784952	0.375
9022	77503	85.032954244237	0.375
9022	77569	85.050126175371	0.625
9022	77760	85.176232644856	0.625
9022	78862	86.076333644856	-0.125
9022	79375	86.576333644856	0.375
9022	81544	88.376434644856	-1.5
9022	81812	88.683793217048	0.625
9022	82234	88.985929139584	0.75
9022	82342	89.094777196818	0.75
9022	82449	89.197386539344	0.875
9022	82708	89.406953564146	0.625
9022	83138	89.784482800163	0.75
9022	83847	90.392107576337	0.25
9022	84996	91.292107576337	-0.25
9022	85873	91.899293743912	0.375
9022	86125	92.104980296755	0.875
9022	86131	92.106661082909	0.25
9022	86764	92.515970535576	0.75
9022	87111	92.815217609418	0.125
9022	87123	92.816315809665	0.125
9022	87130	92.820660387281	0.75
9022	87765	93.421205045952	0.25
9022	88549	94.032936515495	0.875
9022	89038	94.432936515495	0.625
9022	89290	94.635419478419	0.875
9022	90712	95.836705315056	-0.5
9022	91181	96.236705315056	0.625
9022	91335	96.344605367231	0.875
9022	92401	97.329294427144	0.75
9022	92658	97.529294427144	0.75
9022	92866	97.686772613549	0.875
9022	93437	98.09329968179	0.5
9022	93957	98.49329968179	0.625
9022	94574	98.980152184165	0.625
9022	94815	99.194449089263	0
9022	94957	99.299345107237	0.875
9022	95059	99.381705715116	0.625
9022	95652	99.786286999985	0.625
9022	96073	100.106634592162	-0.125
9022	96094	100.140620411487	0.5
9022	96787	100.648146092494	0.25
9022	98414	102.048146092494	-0.875
9022	98575	102.148247092494	0.875
9022	99154	102.648247092494	0.5
9022	99576	102.955329559207	0.75
9022	99883	103.167759862999	0.625
9022	100435	103.563830436043	0.25
9022	100473	103.573437156386	1
9022	101372	104.373437156386	0.125
9022	101597	104.577523864428	0.75
9022	102031	104.915075930298	0.375
9022	102144	105.022665020526	0
9022	102794	105.528951207583	0.375
9022	103723	106.428951207583	0
9022	103859	106.564863239133	0.125
9022	104336	106.979354356119	0.625
9022	104390	107.018754969178	0.75
9022	104427	107.037066273528	0.25
9022	105303	107.838311292418	0
9022	105630	108.138311292418	0.75
9022	105843	108.351930586706	0.875
9022	106380	108.761760669153	0.5
9022	106751	109.061760669153	0.75
9022	106910	109.245036518022	0.75
9022	107180	109.56750963537	0.5
9022	107731	110.046106294859	0.125
9022	107802	110.136141869053	0.5
9022	108198	110.444458290351	0.625
9022	108888	111.044458290351	0
9022	109639	111.748786818916	0.25
9022	110146	112.157875479678	0.625
9022	110843	112.781559037683	0.25
9022	110978	112.882658295799	1
9022	111038	112.958735575028	0.125
9022	111369	113.206187472251	0
9022	111535	113.367699504512	0.625
9022	112106	113.767800504512	0.44444441795349
9022	112451	114.067800504512	0.75
9022	112735	114.369820156947	0.75
9022	113129	114.679138963799	0.75
9022	113196	114.718411182518	0.75
9022	113692	115.186933852309	0.5
9022	114215	115.599269915423	0.625
9022	114920	116.220396887558	-0.875
9022	115154	116.422159181398	0.875
9022	115170	116.425103125627	1
9022	115570	116.825103125627	0.625
9022	116126	117.33308403744	0.25
9022	116559	117.68512509366	1
9022	117460	118.38512509366	0.125
9022	118222	118.991860952495	0.125
9022	118614	119.300553425037	0.75
9022	118690	119.35769713939	-0.125
9022	118924	119.518703235907	0.875
9022	119444	119.870527397624	0.5
9022	119957	120.370628397624	0.375
9022	121482	121.570628397624	-0.5
9022	122009	121.978019027166	0.625
9022	122251	122.18357667519	0.75
9022	122287	122.189513493461	0.75
9022	122578	122.425277881823	0.125
9022	122825	122.625975198303	0.75
9022	123297	122.977705892213	0.875
9022	123320	122.984952781352	0.875
9022	123752	123.285053781352	0.625
9022	124011	123.485053781352	0.875
9022	124371	123.785507318762	0.875
9022	124741	124.139140898523	0.875
9022	124880	124.294075959417	-0.125
9022	125165	124.494176959417	0.75
9022	127909	126.773189582189	-1
9022	128292	127.073189582189	0.75
9022	128792	127.480577584712	0.625
9022	129581	128.088599580437	0.375
9022	130123	128.494795173512	0.5
9022	130620	128.867887848993	0.25
9022	130767	128.999513629053	0.5
9022	131094	129.304963453975	0.75
9022	131212	129.392590269542	0.375
9022	132091	130.094499162637	0.125
9022	132316	130.294499162637	0.875
9022	132705	130.702244682923	0.625
9022	133344	131.311949376485	0.25
9022	134591	132.611949376485	-0.75
9022	135385	133.41410791683	0.125
9023	204	20.200001	0.2
9023	557	20.800001	0.6
9023	1024	21.30178325014	0.5
9023	1655	21.80178325014	0.5
9023	2394	22.407005254566	0.6
9023	2422	22.412752137994	0.6
9023	2468	22.420574096455	0.2
9023	2791	22.627058705961	0.2
9023	3189	22.929145375954	0.3
9023	3405	23.036307273696	0.1
9023	3487	23.125528704674	0.1
9023	4028	23.538411752383	0.5
9023	4673	24.143469200649	0.6
9023	4904	24.343469200649	0.2
9023	5116	24.531701531603	0.2
9023	5476	24.841202715725	0.3
9023	5492	24.847618419733	0.5
9023	5528	24.923785597447	0.3
9023	5713	25.031176808501	0.1
9023	6284	25.431176808501	0.4
9023	7135	25.939083647952	0.5
9023	7380	26.141946757098	0.2
9023	8734	27.351095509404	1.2
9023	9256	27.851095509404	0.5
9023	9487	28.057457168501	0.2
9023	9897	28.375553103013	0.4
9023	10158	28.575751362313	0.2
9023	10592	28.976746899436	0.4
9023	11289	29.676746899436	0.7
9023	12317	30.376847899436	0.7
9023	13523	31.276847899436	0.9
9023	13816	31.485033651398	0.2
9023	14361	31.992791058743	0.5
9023	14380	31.999359103838	0.7
9023	15878	33.189305136457	0.3
9023	16477	33.689305136457	0.5
9023	16849	33.990984817272	0.3
9023	16985	34.055458121944	0.5
9023	17469	34.462577436858	0.4
9023	17787	34.762577436858	0.3
9023	18026	34.974812672395	0.2
9023	18166	35.096218171701	0.2
9023	18234	35.157727457164	0.2
9023	20171	36.761115525208	1.6
9023	20999	37.461115525208	0.7
9023	22082	38.465714133332	1
9023	22874	39.181212102307	0.5
9023	23249	39.493111521351	0.3
9023	23351	39.582060928764	1.1
9023	23591	39.785712973116	0.5
9023	24339	40.392117695939	0.6
9023	25208	41.192117695939	0.8
9023	25584	41.499481297629	0.3
9023	25763	41.631038617106	0.3
9023	25802	41.662143355872	0.3
9023	25996	41.770984371388	0.1
9023	26421	42.070984371388	0.3
9023	26874	42.386070568755	0.3
9023	27373	42.730544787123	0.3
9023	27575	42.889310598401	0.5
9023	27696	42.938656653586	0.2
9023	28256	43.438757653586	0.5
9023	28816	44.044933292505	0.6
9023	29117	44.351491334487	0.3
9023	29290	44.506896713795	0.6
9023	29583	44.810800664822	0.3
9023	30120	45.310800664822	0.5
9023	31046	46.216674976692	0.9
9023	31199	46.326308227238	0.1
9023	31485	46.534523737543	0.2
9023	31945	46.944144948262	0.4
9023	32188	47.147317440167	0.2
9023	32850	47.653623516363	0.5
9023	32993	47.763121330286	0.1
9023	33605	48.165573832487	0.4
9023	33902	48.370226610227	0.2
9023	34730	49.074130264159	0.7
9023	35017	49.274130264159	0.2
9023	36307	50.483767104945	1.2
9023	36623	50.783767104945	0.3
9023	36996	51.091078686464	0.3
9023	37012	51.099323157964	0.3
9023	37032	51.100003305344	0
9023	37698	51.700003305344	0.6
9023	37872	51.860367981278	0.6
9023	38809	52.568004746791	0.7
9023	39168	52.868004746791	0.3
9023	39773	53.374049489283	0.5
9023	40434	53.998777972482	0.3
9023	40508	54.076519761885	0.7
9023	41333	54.879131938414	0.8
9023	41622	55.179131938414	0.3
9023	41867	55.386629595464	0.2
9023	41910	55.416049266707	0.2
9023	42254	55.716949359542	0.3
9023	42331	55.792394708277	0.4
9023	43310	56.500404350468	0.7
9023	44492	57.500404350468	1
9023	44619	57.600505350468	0.1
9023	45058	58.000505350468	0.4
9023	45421	58.306664727947	0.3
9023	45641	58.509293712193	0.2
9023	46200	59.012903050307	0.5
9023	47409	59.915606549962	0.9
9023	47818	60.215606549962	0.3
9023	48033	60.424765800945	0.2
9023	48530	60.932303820849	0.5
9023	49606	61.84675549981	0.5
9023	50036	62.24675549981	0.4
9023	50259	62.454955290665	0.2
9023	50631	62.766129303687	0.3
9023	50813	62.886368228094	0.2
9023	50927	62.973800863526	0.2
9023	51080	63.080428865156	0.2
9023	51112	63.09608649138	0.2
9023	51130	63.096939231129	0
9023	51739	63.596939231129	0.5
9023	51745	63.605611460719	0.5
9023	51905	63.777565346395	0.5
9023	52068	63.899070197618	0.3
9023	52080	63.909005605601	0.3
9023	52385	64.184229168074	0.4
9023	52440	64.218875376674	0.3
9023	52655	64.38446081373	0.2
9023	52877	64.600992339128	0.2
9023	52898	64.606810280233	0.7
9023	53157	64.824026157128	1.1
9023	53343	64.988292143331	0.8
9023	53442	65.025531529663	0.2
9023	53563	65.111508511679	0.5
9023	53572	65.117882864023	0.5
9023	53705	65.217983864023	0.1
9023	53958	65.417983864023	0.2
9023	54199	65.618084864023	0.2
9023	54926	66.118084864023	0.5
9023	55557	66.532772870192	0.4
9023	55566	66.56095315641	0.4
9023	56135	66.961231368923	0.4
9023	56333	67.107370182416	0
9023	57459	68.302948815413	0.7
9023	57712	68.507370182416	1.4