version 2
run Stability-44-20130526-18:50:00-1898
attr configname Stability
attr datetime 20130526-18:50:00
attr experiment Stability
attr inifile omnetpp.ini
attr iterationvars $0=1e2
attr iterationvars2 "$0=1e2, $repetition=4"
attr measurement $0=1e2
attr network Network
attr processid 1898
attr repetition 4
attr replication #4
attr resultdir results
attr runnumber 44
attr seedset 44

vector 4364  Network.churner  inGoingSizeSig:vector  ETV
vector 4271  Network.dyn_peer[1]  lookupHopsSig:vector  ETV
vector 4272  Network.dyn_peer[1]  lookupStabilitySig:vector  ETV
vector 4273  Network.dyn_peer[1]  lookupTimeSig:vector  ETV
vector 4268  Network.dyn_peer[0]  lookupHopsSig:vector  ETV
vector 4269  Network.dyn_peer[0]  lookupStabilitySig:vector  ETV
vector 4270  Network.dyn_peer[0]  lookupTimeSig:vector  ETV
vector 4274  Network.dyn_peer[2]  lookupHopsSig:vector  ETV
vector 4275  Network.dyn_peer[2]  lookupStabilitySig:vector  ETV
vector 4276  Network.dyn_peer[2]  lookupTimeSig:vector  ETV
vector 4277  Network.dyn_peer[3]  lookupHopsSig:vector  ETV
vector 4278  Network.dyn_peer[3]  lookupStabilitySig:vector  ETV
vector 4279  Network.dyn_peer[3]  lookupTimeSig:vector  ETV
vector 4283  Network.dyn_peer[5]  lookupHopsSig:vector  ETV
vector 4284  Network.dyn_peer[5]  lookupStabilitySig:vector  ETV
vector 4285  Network.dyn_peer[5]  lookupTimeSig:vector  ETV
vector 4286  Network.dyn_peer[6]  lookupHopsSig:vector  ETV
vector 4287  Network.dyn_peer[6]  lookupStabilitySig:vector  ETV
vector 4288  Network.dyn_peer[6]  lookupTimeSig:vector  ETV
vector 4280  Network.dyn_peer[4]  lookupHopsSig:vector  ETV
vector 4281  Network.dyn_peer[4]  lookupStabilitySig:vector  ETV
vector 4282  Network.dyn_peer[4]  lookupTimeSig:vector  ETV
vector 4289  Network.dyn_peer[7]  lookupHopsSig:vector  ETV
vector 4290  Network.dyn_peer[7]  lookupStabilitySig:vector  ETV
vector 4291  Network.dyn_peer[7]  lookupTimeSig:vector  ETV
vector 4292  Network.dyn_peer[8]  lookupHopsSig:vector  ETV
vector 4293  Network.dyn_peer[8]  lookupStabilitySig:vector  ETV
vector 4294  Network.dyn_peer[8]  lookupTimeSig:vector  ETV
vector 4295  Network.dyn_peer[9]  lookupHopsSig:vector  ETV
vector 4296  Network.dyn_peer[9]  lookupStabilitySig:vector  ETV
vector 4297  Network.dyn_peer[9]  lookupTimeSig:vector  ETV
vector 4301  Network.dyn_peer[11]  lookupHopsSig:vector  ETV
vector 4302  Network.dyn_peer[11]  lookupStabilitySig:vector  ETV
vector 4303  Network.dyn_peer[11]  lookupTimeSig:vector  ETV
vector 4304  Network.dyn_peer[12]  lookupHopsSig:vector  ETV
vector 4305  Network.dyn_peer[12]  lookupStabilitySig:vector  ETV
vector 4306  Network.dyn_peer[12]  lookupTimeSig:vector  ETV
vector 4298  Network.dyn_peer[10]  lookupHopsSig:vector  ETV
vector 4299  Network.dyn_peer[10]  lookupStabilitySig:vector  ETV
vector 4300  Network.dyn_peer[10]  lookupTimeSig:vector  ETV
vector 4307  Network.dyn_peer[13]  lookupHopsSig:vector  ETV
vector 4308  Network.dyn_peer[13]  lookupStabilitySig:vector  ETV
vector 4309  Network.dyn_peer[13]  lookupTimeSig:vector  ETV
vector 4310  Network.dyn_peer[14]  lookupHopsSig:vector  ETV
vector 4311  Network.dyn_peer[14]  lookupStabilitySig:vector  ETV
vector 4312  Network.dyn_peer[14]  lookupTimeSig:vector  ETV
vector 4313  Network.dyn_peer[15]  lookupHopsSig:vector  ETV
vector 4314  Network.dyn_peer[15]  lookupStabilitySig:vector  ETV
vector 4315  Network.dyn_peer[15]  lookupTimeSig:vector  ETV
vector 4319  Network.dyn_peer[17]  lookupHopsSig:vector  ETV
vector 4320  Network.dyn_peer[17]  lookupStabilitySig:vector  ETV
vector 4321  Network.dyn_peer[17]  lookupTimeSig:vector  ETV
vector 4322  Network.dyn_peer[18]  lookupHopsSig:vector  ETV
vector 4323  Network.dyn_peer[18]  lookupStabilitySig:vector  ETV
vector 4324  Network.dyn_peer[18]  lookupTimeSig:vector  ETV
vector 4316  Network.dyn_peer[16]  lookupHopsSig:vector  ETV
vector 4317  Network.dyn_peer[16]  lookupStabilitySig:vector  ETV
vector 4318  Network.dyn_peer[16]  lookupTimeSig:vector  ETV
vector 4325  Network.dyn_peer[19]  lookupHopsSig:vector  ETV
vector 4326  Network.dyn_peer[19]  lookupStabilitySig:vector  ETV
vector 4327  Network.dyn_peer[19]  lookupTimeSig:vector  ETV
vector 4328  Network.dyn_peer[20]  lookupHopsSig:vector  ETV
vector 4329  Network.dyn_peer[20]  lookupStabilitySig:vector  ETV
vector 4330  Network.dyn_peer[20]  lookupTimeSig:vector  ETV
vector 4331  Network.dyn_peer[21]  lookupHopsSig:vector  ETV
vector 4332  Network.dyn_peer[21]  lookupStabilitySig:vector  ETV
vector 4333  Network.dyn_peer[21]  lookupTimeSig:vector  ETV
vector 4334  Network.dyn_peer[22]  lookupHopsSig:vector  ETV
vector 4335  Network.dyn_peer[22]  lookupStabilitySig:vector  ETV
vector 4336  Network.dyn_peer[22]  lookupTimeSig:vector  ETV
vector 4337  Network.dyn_peer[23]  lookupHopsSig:vector  ETV
vector 4338  Network.dyn_peer[23]  lookupStabilitySig:vector  ETV
vector 4339  Network.dyn_peer[23]  lookupTimeSig:vector  ETV
vector 4343  Network.dyn_peer[25]  lookupHopsSig:vector  ETV
vector 4344  Network.dyn_peer[25]  lookupStabilitySig:vector  ETV
vector 4345  Network.dyn_peer[25]  lookupTimeSig:vector  ETV
vector 4346  Network.dyn_peer[26]  lookupHopsSig:vector  ETV
vector 4347  Network.dyn_peer[26]  lookupStabilitySig:vector  ETV
vector 4348  Network.dyn_peer[26]  lookupTimeSig:vector  ETV
vector 4349  Network.dyn_peer[27]  lookupHopsSig:vector  ETV
vector 4350  Network.dyn_peer[27]  lookupStabilitySig:vector  ETV
vector 4351  Network.dyn_peer[27]  lookupTimeSig:vector  ETV
vector 4355  Network.dyn_peer[29]  lookupHopsSig:vector  ETV
vector 4356  Network.dyn_peer[29]  lookupStabilitySig:vector  ETV
vector 4357  Network.dyn_peer[29]  lookupTimeSig:vector  ETV
vector 4358  Network.dyn_peer[30]  lookupHopsSig:vector  ETV
vector 4359  Network.dyn_peer[30]  lookupStabilitySig:vector  ETV
vector 4360  Network.dyn_peer[30]  lookupTimeSig:vector  ETV
vector 4340  Network.dyn_peer[24]  lookupHopsSig:vector  ETV
vector 4341  Network.dyn_peer[24]  lookupStabilitySig:vector  ETV
vector 4342  Network.dyn_peer[24]  lookupTimeSig:vector  ETV
vector 4361  Network.dyn_peer[31]  lookupHopsSig:vector  ETV
vector 4362  Network.dyn_peer[31]  lookupStabilitySig:vector  ETV
vector 4363  Network.dyn_peer[31]  lookupTimeSig:vector  ETV
vector 4352  Network.dyn_peer[28]  lookupHopsSig:vector  ETV
vector 4353  Network.dyn_peer[28]  lookupStabilitySig:vector  ETV
vector 4354  Network.dyn_peer[28]  lookupTimeSig:vector  ETV
4268	42	20.3	2
4268	61	20.5	1
4268	90	20.701728949253	1
4268	156	21.010341036623	2
4268	187	21.109190401623	1
4268	292	21.414017616034	3
4268	294	21.414115190674	3
4268	1467	24.2	6
4268	1847	24.910136142851	4
4268	3019	27.3	7
4268	3232	27.8	4
4268	3340	28.002782813203	1
4268	3415	28.125292100438	1
4268	3440	28.206181567932	1
4268	4497	30.7	2
4268	4599	30.9	1
4268	4780	31.201431755751	3
4268	4885	31.407157042384	1
4268	5047	31.807622738477	3
4268	5153	32.009378890056	1
4268	5252	32.219367459389	1
4268	5352	32.424351994267	1
4268	6489	34.4	5
4268	6618	34.608030846463	1
4268	6822	34.917965836692	2
4268	6879	35.028769584248	2
4268	8009	37.3	4
4268	8239	37.8	4
4268	8312	37.923678671393	6
4268	9464	40.1	4
4268	9652	40.6	4
4268	9734	40.800723499758	1
4268	9889	41.106354225291	2
4268	10937	43	2
4268	11045	43.2	1
4268	11391	43.801054053986	6
4268	11412	43.815719745803	5
4268	12469	45.7	1
4268	12559	45.9	1
4268	12780	46.308261538837	3
4268	13058	46.911217462562	6
4268	13087	47.00398568781	5
4268	14188	49.3	2
4268	14283	49.5	2
4268	14698	50.210351487567	7
4268	15919	52.7	6
4268	16051	53.1	3
4268	16192	53.505943284023	4
4268	16477	54.111082948704	5
4268	16817	54.611222935872	6
4268	16943	54.820083640791	1
4268	16976	54.920115354741	1
4268	16980	54.939141851576	7
4268	18198	57.4	4
4268	18478	57.9	4
4268	18740	58.400753217539	4
4268	18841	58.603687318225	1
4268	18894	58.70892849988	4
4268	19016	59.009055326689	2
4268	19091	59.210045474837	2
4268	19110	59.22093459799	6
4268	20103	61.5	2
4268	20396	62.019924370682	4
4268	20564	62.329699223435	2
4268	20649	62.520457960665	3
4268	21536	64.5	1
4268	21624	64.702259190762	1
4268	21738	64.934705088078	1
4268	21757	65.003863352785	3
4268	21882	65.309815981999	2
4268	21886	65.311576680363	3
4268	21940	65.437110401156	5
4268	23083	67.4	2
4268	23228	67.7	2
4268	23321	67.900847120233	1
4268	23331	67.913774150581	1
4268	23337	67.918673023153	3
4268	24456	70.2	3
4268	24679	70.6	3
4268	24932	71.209943153529	6
4268	24997	71.420644918816	1
4268	26023	73.5	1
4268	26131	73.8	2
4268	26296	74.103145585933	2
4268	26389	74.306272719015	1
4268	26493	74.510653527732	1
4268	27577	76.9	3
4268	27739	77.203450755921	2
4268	27915	77.514929473429	2
4268	28010	77.720139604724	1
4268	28918	79.5	0
4268	29058	79.8	2
4268	30217	82.1	4
4268	30336	82.3	1
4268	30598	82.904021884514	5
4268	30757	83.204982593347	2
4268	30764	83.211106884089	2
4268	31822	85.4	2
4268	31980	85.7	3
4268	32095	86.008775078391	2
4268	32234	86.240140427477	1
4268	33248	88.5	2
4268	33402	88.9	3
4268	33745	89.606717758881	6
4268	33748	89.607372063188	6
4268	33830	89.806846758764	2
4268	33840	89.815109077698	1
4268	33860	89.900701566378	1
4268	34830	91.7	1
4268	34975	92	2
4268	35106	92.233391396393	1
4268	35119	92.302099927975	2
4268	35252	92.602734673639	2
4268	36356	95	4
4268	36492	95.4	3
4268	36582	95.704985054137	2
4268	36667	95.907052973913	1
4268	37704	98.1	2
4268	37979	98.7	5
4268	38067	98.905966877411	1
4268	38163	99.10826917208	1
4268	39415	101.5	6
4268	39530	101.7	1
4268	39591	101.812403005045	1
4268	39630	101.901507070853	1
4268	40617	104.3	2
4268	40730	104.6	2
4268	40898	104.909606703075	2
4268	40971	105.020402635081	1
4268	41213	105.455852960871	3
4268	42265	107.6	3
4268	42530	108.1	4
4268	42623	108.328720854285	2
4268	42660	108.421204781174	4
4268	42701	108.511109821844	3
4268	43582	110.4	2
4268	43795	110.8	3
4268	43956	111.100920194673	2
4268	44041	111.308918597709	1
4268	45070	113.5	1
4268	45156	113.7	1
4268	45400	114.200065227348	4
4268	46383	116.3	2
4268	46634	116.8	4
4268	46818	117.104900338721	2
4268	47049	117.515996677582	3
4268	48225	120.1	7
4268	48311	120.3	1
4268	48508	120.80221782902	4
4268	48669	121.11648695123	2
4268	48802	121.326844059938	1
4268	49952	123.5	3
4268	50028	123.6	0
4268	50138	123.808942849689	1
4268	51103	125.8	2
4268	51180	126	1
4268	51278	126.208566579073	1
4268	51478	126.621991863621	3
4268	51484	126.627883477624	3
4268	52656	128.8	2
4268	52763	129.1	2
4268	52863	129.301498828791	1
4268	53003	129.553947514145	2
4268	53106	129.802166706921	4
4268	54025	132.1	2
4268	54216	132.445845918474	2
4268	54235	132.501890303823	3
4268	55389	134.7	4
4268	55474	134.9	1
4268	55664	135.303372328632	2
4268	55877	135.804441302502	12
4268	55896	135.815312046696	5
4268	56039	136.115388741177	2
4268	56072	136.206683736794	3
4268	57146	138.5	4
4268	57428	139	4
4268	58580	141.1	3
4268	58886	141.7	6
4268	58960	141.905497150844	1
4268	59098	142.211715390162	2
4268	60059	144.2	2
4268	60179	144.409923216956	1
4268	60227	144.558276260279	1
4268	60382	144.918604202768	4
4268	61460	146.6	1
4268	61729	147.1	5
4268	62269	148.211336626277	9
4268	62485	148.508590693669	14
4268	62495	148.51643148126	2
4268	63490	150.4	1
4268	63590	150.607643171222	1
4268	63659	150.816609955319	1
4268	64013	151.626976143624	7
4268	65051	153.6	1
4268	65262	154	4
4268	65414	154.306246630464	2
4268	65605	154.621962753154	2
4268	65615	154.624873135915	2
4268	65731	154.820451398905	2
4268	66898	157.3	3
4268	67213	157.807642781378	4
4268	67360	158.019859117687	1
4268	67439	158.201343863897	1
4268	68611	160.3	4
4268	69045	161.3	10
4268	69167	161.60806125913	2
4268	69313	161.909328961974	2
4268	69481	162.214725357757	2
4268	70444	164.4	2
4268	70903	165.3	8
4268	71084	165.60920410304	2
4268	71400	166.210205257156	5
4268	71520	166.410266582061	3
4268	71603	166.519397755887	2
4268	72748	169	5
4268	72942	169.5	5
4268	73042	169.708733877348	1
4268	73243	170.12485587417	3
4268	74239	172.2	2
4268	74374	172.5	2
4268	74565	172.809141114728	3
4268	74715	173.114389265955	3
4268	75715	175.5	2
4268	75837	175.7	1
4268	75988	176.008022782164	2
4268	76153	176.400716684217	4
4268	77180	178.9	3
4268	77259	179.1	1
4268	77488	179.514007948261	3
4268	77622	179.820531848486	2
4268	78549	182	2
4268	78747	182.4	3
4268	78943	182.908801847146	4
4268	78962	182.92431434735	4
4268	79043	183.126651553751	1
4268	79076	183.210743813034	1
4268	79179	183.434433201278	2
4268	80267	185.8	2
4268	80596	186.6	8
4268	80892	187.207935989301	5
4268	80894	187.208261669452	5
4268	81151	187.712981185929	4
4268	81153	187.713203929622	4
4268	81192	187.809076735291	3
4268	81280	188.010315538015	1
4268	81282	188.012774068638	1
4268	82371	190.3	2
4268	82537	190.6	2
4268	82677	190.729931166878	0
4268	82763	190.906341922424	3
4268	83738	193.2	1
4268	83872	193.5	2
4268	84102	194.000663922242	5
4268	84114	194.009449315552	4
4268	85181	196.4	4
4268	85373	196.8	3
4268	85607	197.307521002012	1
4268	85651	197.409555810576	5
4268	85789	197.707801481861	4
4268	85793	197.713079420831	2
4268	86787	200	3
4268	87184	200.8	7
4268	87260	201.002642438784	1
4268	87390	201.230514267044	5
4268	88560	203.6	5
4268	88780	204.1	4
4268	88909	204.404939080928	2
4268	89039	204.716414010902	4
4268	89083	204.81327453199	4
4268	89113	204.902519548816	3
4268	90038	206.9	1
4268	90129	207.1	1
4268	91213	209.3	2
4268	91393	209.6	2
4268	91546	209.901473859697	2
4268	91597	210.022278950231	2
4268	92675	212.3	2
4268	93129	213.1	8
4268	93357	213.40678770737	2
4268	93377	213.412780797666	2
4268	94423	215.2	2
4268	94528	215.4	1
4268	94735	215.707047653773	3
4268	94833	215.805314254083	1
4268	94913	215.931907432247	1
4268	95929	217.7	2
4268	96112	218.1	3
4268	96229	218.300864475921	1
4268	96239	218.30933033519	1
4268	97365	220.5	3
4268	97619	221	4
4268	97750	221.207303845833	1
4268	97840	221.414659410707	2
4268	97843	221.415151567502	1
4268	98723	223.5	1
4268	98852	223.8	2
4268	98896	223.906804916027	2
4268	98966	224.021555631897	2
4269	42	20.3	0.75
4269	61	20.5	0.875
4269	90	20.701728949253	0.875
4269	156	21.010341036623	0.75
4269	187	21.109190401623	0.875
4269	292	21.414017616034	0.625
4269	294	21.414115190674	0.625
4269	1467	24.2	0.25
4269	1847	24.910136142851	0.5
4269	3019	27.3	0.125
4269	3232	27.8	0.5
4269	3340	28.002782813203	0.875
4269	3415	28.125292100438	0.875
4269	3440	28.206181567932	0.875
4269	4497	30.7	0.75
4269	4599	30.9	0.875
4269	4780	31.201431755751	0.625
4269	4885	31.407157042384	0.875
4269	5047	31.807622738477	0.625
4269	5153	32.009378890056	0.875
4269	5252	32.219367459389	0.875
4269	5352	32.424351994267	0.875
4269	6489	34.4	0.375
4269	6618	34.608030846463	0.875
4269	6822	34.917965836692	0.75
4269	6879	35.028769584248	0.75
4269	8009	37.3	0.5
4269	8239	37.8	0.5
4269	8312	37.923678671393	0.25
4269	9464	40.1	0.5
4269	9652	40.6	0.5
4269	9734	40.800723499758	0.875
4269	9889	41.106354225291	0.75
4269	10937	43	0.75
4269	11045	43.2	0.875
4269	11391	43.801054053986	0.25
4269	11412	43.815719745803	0.375
4269	12469	45.7	0.875
4269	12559	45.9	0.875
4269	12780	46.308261538837	0.625
4269	13058	46.911217462562	0.25
4269	13087	47.00398568781	0.375
4269	14188	49.3	0.75
4269	14283	49.5	0.75
4269	14698	50.210351487567	0.125
4269	15919	52.7	0.25
4269	16051	53.1	0.625
4269	16192	53.505943284023	0.5
4269	16477	54.111082948704	0.375
4269	16817	54.611222935872	0.25
4269	16943	54.820083640791	0.875
4269	16976	54.920115354741	0.875
4269	16980	54.939141851576	0.125
4269	18198	57.4	0.5
4269	18478	57.9	0.5
4269	18740	58.400753217539	0.5
4269	18841	58.603687318225	0.875
4269	18894	58.70892849988	0.5
4269	19016	59.009055326689	0.75
4269	19091	59.210045474837	0.75
4269	19110	59.22093459799	0.25
4269	20103	61.5	0.75
4269	20396	62.019924370682	0.5
4269	20564	62.329699223435	0.75
4269	20649	62.520457960665	0.625
4269	21536	64.5	0.875
4269	21624	64.702259190762	0.875
4269	21738	64.934705088078	0.875
4269	21757	65.003863352785	0.625
4269	21882	65.309815981999	0.75
4269	21886	65.311576680363	0.625
4269	21940	65.437110401156	0.375
4269	23083	67.4	0.75
4269	23228	67.7	0.75
4269	23321	67.900847120233	0.875
4269	23331	67.913774150581	0.875
4269	23337	67.918673023153	0.625
4269	24456	70.2	0.625
4269	24679	70.6	0.625
4269	24932	71.209943153529	0.25
4269	24997	71.420644918816	0.875
4269	26023	73.5	0.875
4269	26131	73.8	0.75
4269	26296	74.103145585933	0.75
4269	26389	74.306272719015	0.875
4269	26493	74.510653527732	0.875
4269	27577	76.9	0.625
4269	27739	77.203450755921	0.75
4269	27915	77.514929473429	0.75
4269	28010	77.720139604724	0.875
4269	28918	79.5	1
4269	29058	79.8	0.75
4269	30217	82.1	0.5
4269	30336	82.3	0.875
4269	30598	82.904021884514	0.375
4269	30757	83.204982593347	0.75
4269	30764	83.211106884089	0.75
4269	31822	85.4	0.75
4269	31980	85.7	0.625
4269	32095	86.008775078391	0.75
4269	32234	86.240140427477	0.875
4269	33248	88.5	0.75
4269	33402	88.9	0.625
4269	33745	89.606717758881	0.25
4269	33748	89.607372063188	0.25
4269	33830	89.806846758764	0.75
4269	33840	89.815109077698	0.875
4269	33860	89.900701566378	0.875
4269	34830	91.7	0.875
4269	34975	92	0.75
4269	35106	92.233391396393	0.875
4269	35119	92.302099927975	0.75
4269	35252	92.602734673639	0.75
4269	36356	95	0.5
4269	36492	95.4	0.625
4269	36582	95.704985054137	0.75
4269	36667	95.907052973913	0.875
4269	37704	98.1	0.75
4269	37979	98.7	0.375
4269	38067	98.905966877411	0.875
4269	38163	99.10826917208	0.875
4269	39415	101.5	0.25
4269	39530	101.7	0.875
4269	39591	101.812403005045	0.875
4269	39630	101.901507070853	0.875
4269	40617	104.3	0.75
4269	40730	104.6	0.75
4269	40898	104.909606703075	0.75
4269	40971	105.020402635081	0.875
4269	41213	105.455852960871	0.625
4269	42265	107.6	0.625
4269	42530	108.1	0.5
4269	42623	108.328720854285	0.75
4269	42660	108.421204781174	0.5
4269	42701	108.511109821844	0.625
4269	43582	110.4	0.75
4269	43795	110.8	0.625
4269	43956	111.100920194673	0.75
4269	44041	111.308918597709	0.875
4269	45070	113.5	0.875
4269	45156	113.7	0.875
4269	45400	114.200065227348	0.5
4269	46383	116.3	0.75
4269	46634	116.8	0.5
4269	46818	117.104900338721	0.75
4269	47049	117.515996677582	0.625
4269	48225	120.1	0.125
4269	48311	120.3	0.875
4269	48508	120.80221782902	0.5
4269	48669	121.11648695123	0.75
4269	48802	121.326844059938	0.875
4269	49952	123.5	0.625
4269	50028	123.6	1
4269	50138	123.808942849689	0.875
4269	51103	125.8	0.75
4269	51180	126	0.875
4269	51278	126.208566579073	0.875
4269	51478	126.621991863621	0.625
4269	51484	126.627883477624	0.625
4269	52656	128.8	0.75
4269	52763	129.1	0.75
4269	52863	129.301498828791	0.875
4269	53003	129.553947514145	0.75
4269	53106	129.802166706921	0.5
4269	54025	132.1	0.75
4269	54216	132.445845918474	0.75
4269	54235	132.501890303823	0.625
4269	55389	134.7	0.5
4269	55474	134.9	0.875
4269	55664	135.303372328632	0.75
4269	55877	135.804441302502	-0.5
4269	55896	135.815312046696	0.375
4269	56039	136.115388741177	0.75
4269	56072	136.206683736794	0.625
4269	57146	138.5	0.5
4269	57428	139	0.5
4269	58580	141.1	0.625
4269	58886	141.7	0.25
4269	58960	141.905497150844	0.875
4269	59098	142.211715390162	0.75
4269	60059	144.2	0.75
4269	60179	144.409923216956	0.875
4269	60227	144.558276260279	0.875
4269	60382	144.918604202768	0.5
4269	61460	146.6	0.875
4269	61729	147.1	0.375
4269	62269	148.211336626277	-0.125
4269	62485	148.508590693669	-0.75
4269	62495	148.51643148126	0.75
4269	63490	150.4	0.875
4269	63590	150.607643171222	0.875
4269	63659	150.816609955319	0.875
4269	64013	151.626976143624	0.125
4269	65051	153.6	0.875
4269	65262	154	0.5
4269	65414	154.306246630464	0.75
4269	65605	154.621962753154	0.75
4269	65615	154.624873135915	0.75
4269	65731	154.820451398905	0.75
4269	66898	157.3	0.625
4269	67213	157.807642781378	0.55555555224419
4269	67360	158.019859117687	0.875
4269	67439	158.201343863897	0.875
4269	68611	160.3	0.5
4269	69045	161.3	-0.25
4269	69167	161.60806125913	0.75
4269	69313	161.909328961974	0.75
4269	69481	162.214725357757	0.75
4269	70444	164.4	0.75
4269	70903	165.3	0
4269	71084	165.60920410304	0.75
4269	71400	166.210205257156	0.375
4269	71520	166.410266582061	0.625
4269	71603	166.519397755887	0.75
4269	72748	169	0.375
4269	72942	169.5	0.375
4269	73042	169.708733877348	0.875
4269	73243	170.12485587417	0.625
4269	74239	172.2	0.75
4269	74374	172.5	0.75
4269	74565	172.809141114728	0.625
4269	74715	173.114389265955	0.625
4269	75715	175.5	0.75
4269	75837	175.7	0.875
4269	75988	176.008022782164	0.75
4269	76153	176.400716684217	0.5
4269	77180	178.9	0.625
4269	77259	179.1	0.875
4269	77488	179.514007948261	0.625
4269	77622	179.820531848486	0.75
4269	78549	182	0.75
4269	78747	182.4	0.625
4269	78943	182.908801847146	0.5
4269	78962	182.92431434735	0.5
4269	79043	183.126651553751	0.875
4269	79076	183.210743813034	0.875
4269	79179	183.434433201278	0.75
4269	80267	185.8	0.75
4269	80596	186.6	0
4269	80892	187.207935989301	0.375
4269	80894	187.208261669452	0.375
4269	81151	187.712981185929	0.5
4269	81153	187.713203929622	0.5
4269	81192	187.809076735291	0.625
4269	81280	188.010315538015	0.875
4269	81282	188.012774068638	0.875
4269	82371	190.3	0.75
4269	82537	190.6	0.75
4269	82677	190.729931166878	1
4269	82763	190.906341922424	0.625
4269	83738	193.2	0.875
4269	83872	193.5	0.75
4269	84102	194.000663922242	0.375
4269	84114	194.009449315552	0.5
4269	85181	196.4	0.5
4269	85373	196.8	0.625
4269	85607	197.307521002012	0.875
4269	85651	197.409555810576	0.375
4269	85789	197.707801481861	0.5
4269	85793	197.713079420831	0.75
4269	86787	200	0.625
4269	87184	200.8	0.125
4269	87260	201.002642438784	0.875
4269	87390	201.230514267044	0.375
4269	88560	203.6	0.375
4269	88780	204.1	0.5
4269	88909	204.404939080928	0.75
4269	89039	204.716414010902	0.5
4269	89083	204.81327453199	0.5
4269	89113	204.902519548816	0.625
4269	90038	206.9	0.875
4269	90129	207.1	0.875
4269	91213	209.3	0.75
4269	91393	209.6	0.75
4269	91546	209.901473859697	0.75
4269	91597	210.022278950231	0.75
4269	92675	212.3	0.75
4269	93129	213.1	0
4269	93357	213.40678770737	0.75
4269	93377	213.412780797666	0.75
4269	94423	215.2	0.75
4269	94528	215.4	0.875
4269	94735	215.707047653773	0.625
4269	94833	215.805314254083	0.875
4269	94913	215.931907432247	0.875
4269	95929	217.7	0.75
4269	96112	218.1	0.625
4269	96229	218.300864475921	0.875
4269	96239	218.30933033519	0.875
4269	97365	220.5	0.625
4269	97619	221	0.5
4269	97750	221.207303845833	0.875
4269	97840	221.414659410707	0.75
4269	97843	221.415151567502	0.875
4269	98723	223.5	0.875
4269	98852	223.8	0.75
4269	98896	223.906804916027	0.75
4269	98966	224.021555631897	0.75
4270	42	20.3	0.2
4270	61	20.5	0.2
4270	90	20.701728949253	0.2
4270	156	21.010341036623	0.3
4270	187	21.109190401623	0.2
4270	292	21.414017616034	0.4
4270	294	21.414115190674	0.4
4270	1467	24.2	0.6
4270	1847	24.910136142851	0.5
4270	3019	27.3	0.6
4270	3232	27.8	0.5
4270	3340	28.002782813203	0.2
4270	3415	28.125292100438	0.2
4270	3440	28.206181567932	0.2
4270	4497	30.7	0.2
4270	4599	30.9	0.2
4270	4780	31.201431755751	0.3
4270	4885	31.407157042384	0.2
4270	5047	31.807622738477	0.4
4270	5153	32.009378890056	0.2
4270	5252	32.219367459389	0.2
4270	5352	32.424351994267	0.2
4270	6489	34.4	0.4
4270	6618	34.608030846463	0.2
4270	6822	34.917965836692	0.3
4270	6879	35.028769584248	0.3
4270	8009	37.3	0.4
4270	8239	37.8	0.5
4270	8312	37.923678671393	0.5
4270	9464	40.1	0.4
4270	9652	40.6	0.5
4270	9734	40.800723499758	0.2
4270	9889	41.106354225291	0.3
4270	10937	43	0.2
4270	11045	43.2	0.2
4270	11391	43.801054053986	0.6
4270	11412	43.815719745803	0.6
4270	12469	45.7	0.1
4270	12559	45.9	0.2
4270	12780	46.308261538837	0.4
4270	13058	46.911217462562	0.6
4270	13087	47.00398568781	0.6
4270	14188	49.3	0.2
4270	14283	49.5	0.2
4270	14698	50.210351487567	0.7
4270	15919	52.7	0.6
4270	16051	53.1	0.4
4270	16192	53.505943284023	0.4
4270	16477	54.111082948704	0.6
4270	16817	54.611222935872	0.6
4270	16943	54.820083640791	0.2
4270	16976	54.920115354741	0.2
4270	16980	54.939141851576	0.7
4270	18198	57.4	0.4
4270	18478	57.9	0.5
4270	18740	58.400753217539	0.5
4270	18841	58.603687318225	0.2
4270	18894	58.70892849988	0.5
4270	19016	59.009055326689	0.3
4270	19091	59.210045474837	0.3
4270	19110	59.22093459799	0.6
4270	20103	61.5	0.2
4270	20396	62.019924370682	0.5
4270	20564	62.329699223435	0.3
4270	20649	62.520457960665	0.4
4270	21536	64.5	0.1
4270	21624	64.702259190762	0.2
4270	21738	64.934705088078	0.2
4270	21757	65.003863352785	0.3
4270	21882	65.309815981999	0.3
4270	21886	65.311576680363	0.3
4270	21940	65.437110401156	0.5
4270	23083	67.4	0.2
4270	23228	67.7	0.3
4270	23321	67.900847120233	0.2
4270	23331	67.913774150581	0.2
4270	23337	67.918673023153	0.4
4270	24456	70.2	0.3
4270	24679	70.6	0.4
4270	24932	71.209943153529	0.6
4270	24997	71.420644918816	0.2
4270	26023	73.5	0.1
4270	26131	73.8	0.3
4270	26296	74.103145585933	0.3
4270	26389	74.306272719015	0.2
4270	26493	74.510653527732	0.2
4270	27577	76.9	0.3
4270	27739	77.203450755921	0.3
4270	27915	77.514929473429	0.3
4270	28010	77.720139604724	0.2
4270	28918	79.5	0
4270	29058	79.8	0.3
4270	30217	82.1	0.4
4270	30336	82.3	0.2
4270	30598	82.904021884514	0.6
4270	30757	83.204982593347	0.3
4270	30764	83.211106884089	0.3
4270	31822	85.4	0.2
4270	31980	85.7	0.3
4270	32095	86.008775078391	0.3
4270	32234	86.240140427477	0.2
4270	33248	88.5	0.2
4270	33402	88.9	0.4
4270	33745	89.606717758881	0.7
4270	33748	89.607372063188	0.7
4270	33830	89.806846758764	0.2
4270	33840	89.815109077698	0.2
4270	33860	89.900701566378	0.2
4270	34830	91.7	0.1
4270	34975	92	0.3
4270	35106	92.233391396393	0.2
4270	35119	92.302099927975	0.3
4270	35252	92.602734673639	0.3
4270	36356	95	0.4
4270	36492	95.4	0.4
4270	36582	95.704985054137	0.3
4270	36667	95.907052973913	0.2
4270	37704	98.1	0.2
4270	37979	98.7	0.6
4270	38067	98.905966877411	0.2
4270	38163	99.10826917208	0.2
4270	39415	101.5	0.5
4270	39530	101.7	0.2
4270	39591	101.812403005045	0.2
4270	39630	101.901507070853	0.2
4270	40617	104.3	0.2
4270	40730	104.6	0.3
4270	40898	104.909606703075	0.3
4270	40971	105.020402635081	0.1
4270	41213	105.455852960871	0.4
4270	42265	107.6	0.3
4270	42530	108.1	0.5
4270	42623	108.328720854285	0.3
4270	42660	108.421204781174	0.4
4270	42701	108.511109821844	0.4
4270	43582	110.4	0.2
4270	43795	110.8	0.4
4270	43956	111.100920194673	0.3
4270	44041	111.308918597709	0.2
4270	45070	113.5	0.1
4270	45156	113.7	0.2
4270	45400	114.200065227348	0.5
4270	46383	116.3	0.2
4270	46634	116.8	0.5
4270	46818	117.104900338721	0.3
4270	47049	117.515996677582	0.4
4270	48225	120.1	0.6
4270	48311	120.3	0.2
4270	48508	120.80221782902	0.5
4270	48669	121.11648695123	0.3
4270	48802	121.326844059938	0.2
4270	49952	123.5	0.3
4270	50028	123.6	0.1
4270	50138	123.808942849689	0.2
4270	51103	125.8	0.1
4270	51180	126	0.2
4270	51278	126.208566579073	0.2
4270	51478	126.621991863621	0.4
4270	51484	126.627883477624	0.4
4270	52656	128.8	0.2
4270	52763	129.1	0.3
4270	52863	129.301498828791	0.2
4270	53003	129.553947514145	0.3
4270	53106	129.802166706921	0.5
4270	54025	132.1	0.2
4270	54216	132.445845918474	0.2
4270	54235	132.501890303823	0.4
4270	55389	134.7	0.3
4270	55474	134.9	0.2
4270	55664	135.303372328632	0.3
4270	55877	135.804441302502	0.9
4270	55896	135.815312046696	0.5
4270	56039	136.115388741177	0.3
4270	56072	136.206683736794	0.4
4270	57146	138.5	0.4
4270	57428	139	0.5
4270	58580	141.1	0.3
4270	58886	141.7	0.6
4270	58960	141.905497150844	0.2
4270	59098	142.211715390162	0.3
4270	60059	144.2	0.2
4270	60179	144.409923216956	0.2
4270	60227	144.558276260279	0.2
4270	60382	144.918604202768	0.5
4270	61460	146.6	0.1
4270	61729	147.1	0.5
4270	62269	148.211336626277	0.9
4270	62485	148.508590693669	1.4
4270	62495	148.51643148126	0.3
4270	63490	150.4	0.1
4270	63590	150.607643171222	0.2
4270	63659	150.816609955319	0.2
4270	64013	151.626976143624	0.8
4270	65051	153.6	0.1
4270	65262	154	0.4
4270	65414	154.306246630464	0.3
4270	65605	154.621962753154	0.3
4270	65615	154.624873135915	0.3
4270	65731	154.820451398905	0.3
4270	66898	157.3	0.3
4270	67213	157.807642781378	0.5
4270	67360	158.019859117687	0.2
4270	67439	158.201343863897	0.2
4270	68611	160.3	0.4
4270	69045	161.3	1
4270	69167	161.60806125913	0.3
4270	69313	161.909328961974	0.3
4270	69481	162.214725357757	0.3
4270	70444	164.4	0.2
4270	70903	165.3	0.9
4270	71084	165.60920410304	0.3
4270	71400	166.210205257156	0.6
4270	71520	166.410266582061	0.4
4270	71603	166.519397755887	0.3
4270	72748	169	0.5
4270	72942	169.5	0.5
4270	73042	169.708733877348	0.2
4270	73243	170.12485587417	0.4
4270	74239	172.2	0.2
4270	74374	172.5	0.3
4270	74565	172.809141114728	0.3
4270	74715	173.114389265955	0.3
4270	75715	175.5	0.2
4270	75837	175.7	0.2
4270	75988	176.008022782164	0.3
4270	76153	176.400716684217	0.5
4270	77180	178.9	0.3
4270	77259	179.1	0.2
4270	77488	179.514007948261	0.4
4270	77622	179.820531848486	0.3
4270	78549	182	0.2
4270	78747	182.4	0.4
4270	78943	182.908801847146	0.5
4270	78962	182.92431434735	0.5
4270	79043	183.126651553751	0.2
4270	79076	183.210743813034	0.2
4270	79179	183.434433201278	0.3
4270	80267	185.8	0.2
4270	80596	186.6	0.8
4270	80892	187.207935989301	0.6
4270	80894	187.208261669452	0.6
4270	81151	187.712981185929	0.5
4270	81153	187.713203929622	0.5
4270	81192	187.809076735291	0.4
4270	81280	188.010315538015	0.2
4270	81282	188.012774068638	0.2
4270	82371	190.3	0.2
4270	82537	190.6	0.3
4270	82677	190.729931166878	0.1
4270	82763	190.906341922424	0.4
4270	83738	193.2	0.1
4270	83872	193.5	0.3
4270	84102	194.000663922242	0.5
4270	84114	194.009449315552	0.4
4270	85181	196.4	0.4
4270	85373	196.8	0.4
4270	85607	197.307521002012	0.1
4270	85651	197.409555810576	0.6
4270	85789	197.707801481861	0.5
4270	85793	197.713079420831	0.3
4270	86787	200	0.3
4270	87184	200.8	0.8
4270	87260	201.002642438784	0.2
4270	87390	201.230514267044	0.5
4270	88560	203.6	0.4
4270	88780	204.1	0.5
4270	88909	204.404939080928	0.3
4270	89039	204.716414010902	0.5
4270	89083	204.81327453199	0.4
4270	89113	204.902519548816	0.4
4270	90038	206.9	0.1
4270	90129	207.1	0.2
4270	91213	209.3	0.2
4270	91393	209.6	0.3
4270	91546	209.901473859697	0.3
4270	91597	210.022278950231	0.3
4270	92675	212.3	0.2
4270	93129	213.1	0.8
4270	93357	213.40678770737	0.3
4270	93377	213.412780797666	0.3
4270	94423	215.2	0.2
4270	94528	215.4	0.2
4270	94735	215.707047653773	0.3
4270	94833	215.805314254083	0.2
4270	94913	215.931907432247	0.2