version 2
run Stability-61-20130526-18:51:07-1898
attr configname Stability
attr datetime 20130526-18:51:07
attr experiment Stability
attr inifile omnetpp.ini
attr iterationvars $0=1e0
attr iterationvars2 "$0=1e0, $repetition=1"
attr measurement $0=1e0
attr network Network
attr processid 1898
attr repetition 1
attr replication #1
attr resultdir results
attr runnumber 61
attr seedset 61

vector 6013  Network.churner  inGoingSizeSig:vector  ETV
vector 5971  Network.dyn_peer[18]  lookupHopsSig:vector  ETV
vector 5972  Network.dyn_peer[18]  lookupStabilitySig:vector  ETV
vector 5973  Network.dyn_peer[18]  lookupTimeSig:vector  ETV
vector 6001  Network.dyn_peer[28]  lookupHopsSig:vector  ETV
vector 6002  Network.dyn_peer[28]  lookupStabilitySig:vector  ETV
vector 6003  Network.dyn_peer[28]  lookupTimeSig:vector  ETV
vector 6007  Network.dyn_peer[30]  lookupHopsSig:vector  ETV
vector 6008  Network.dyn_peer[30]  lookupStabilitySig:vector  ETV
vector 6009  Network.dyn_peer[30]  lookupTimeSig:vector  ETV
vector 5920  Network.dyn_peer[1]  lookupHopsSig:vector  ETV
vector 5921  Network.dyn_peer[1]  lookupStabilitySig:vector  ETV
vector 5922  Network.dyn_peer[1]  lookupTimeSig:vector  ETV
vector 5932  Network.dyn_peer[5]  lookupHopsSig:vector  ETV
vector 5933  Network.dyn_peer[5]  lookupStabilitySig:vector  ETV
vector 5934  Network.dyn_peer[5]  lookupTimeSig:vector  ETV
vector 5935  Network.dyn_peer[6]  lookupHopsSig:vector  ETV
vector 5936  Network.dyn_peer[6]  lookupStabilitySig:vector  ETV
vector 5937  Network.dyn_peer[6]  lookupTimeSig:vector  ETV
vector 5941  Network.dyn_peer[8]  lookupHopsSig:vector  ETV
vector 5942  Network.dyn_peer[8]  lookupStabilitySig:vector  ETV
vector 5943  Network.dyn_peer[8]  lookupTimeSig:vector  ETV
vector 5944  Network.dyn_peer[9]  lookupHopsSig:vector  ETV
vector 5945  Network.dyn_peer[9]  lookupStabilitySig:vector  ETV
vector 5946  Network.dyn_peer[9]  lookupTimeSig:vector  ETV
vector 5953  Network.dyn_peer[12]  lookupHopsSig:vector  ETV
vector 5954  Network.dyn_peer[12]  lookupStabilitySig:vector  ETV
vector 5955  Network.dyn_peer[12]  lookupTimeSig:vector  ETV
vector 5968  Network.dyn_peer[17]  lookupHopsSig:vector  ETV
vector 5969  Network.dyn_peer[17]  lookupStabilitySig:vector  ETV
vector 5970  Network.dyn_peer[17]  lookupTimeSig:vector  ETV
vector 5995  Network.dyn_peer[26]  lookupHopsSig:vector  ETV
vector 5996  Network.dyn_peer[26]  lookupStabilitySig:vector  ETV
vector 5997  Network.dyn_peer[26]  lookupTimeSig:vector  ETV
vector 6004  Network.dyn_peer[29]  lookupHopsSig:vector  ETV
vector 6005  Network.dyn_peer[29]  lookupStabilitySig:vector  ETV
vector 6006  Network.dyn_peer[29]  lookupTimeSig:vector  ETV
vector 5923  Network.dyn_peer[2]  lookupHopsSig:vector  ETV
vector 5924  Network.dyn_peer[2]  lookupStabilitySig:vector  ETV
vector 5925  Network.dyn_peer[2]  lookupTimeSig:vector  ETV
vector 5938  Network.dyn_peer[7]  lookupHopsSig:vector  ETV
vector 5939  Network.dyn_peer[7]  lookupStabilitySig:vector  ETV
vector 5940  Network.dyn_peer[7]  lookupTimeSig:vector  ETV
vector 5947  Network.dyn_peer[10]  lookupHopsSig:vector  ETV
vector 5948  Network.dyn_peer[10]  lookupStabilitySig:vector  ETV
vector 5949  Network.dyn_peer[10]  lookupTimeSig:vector  ETV
vector 5950  Network.dyn_peer[11]  lookupHopsSig:vector  ETV
vector 5951  Network.dyn_peer[11]  lookupStabilitySig:vector  ETV
vector 5952  Network.dyn_peer[11]  lookupTimeSig:vector  ETV
vector 5956  Network.dyn_peer[13]  lookupHopsSig:vector  ETV
vector 5957  Network.dyn_peer[13]  lookupStabilitySig:vector  ETV
vector 5958  Network.dyn_peer[13]  lookupTimeSig:vector  ETV
vector 5959  Network.dyn_peer[14]  lookupHopsSig:vector  ETV
vector 5960  Network.dyn_peer[14]  lookupStabilitySig:vector  ETV
vector 5961  Network.dyn_peer[14]  lookupTimeSig:vector  ETV
vector 5962  Network.dyn_peer[15]  lookupHopsSig:vector  ETV
vector 5963  Network.dyn_peer[15]  lookupStabilitySig:vector  ETV
vector 5964  Network.dyn_peer[15]  lookupTimeSig:vector  ETV
vector 5965  Network.dyn_peer[16]  lookupHopsSig:vector  ETV
vector 5966  Network.dyn_peer[16]  lookupStabilitySig:vector  ETV
vector 5967  Network.dyn_peer[16]  lookupTimeSig:vector  ETV
vector 5974  Network.dyn_peer[19]  lookupHopsSig:vector  ETV
vector 5975  Network.dyn_peer[19]  lookupStabilitySig:vector  ETV
vector 5976  Network.dyn_peer[19]  lookupTimeSig:vector  ETV
vector 5977  Network.dyn_peer[20]  lookupHopsSig:vector  ETV
vector 5978  Network.dyn_peer[20]  lookupStabilitySig:vector  ETV
vector 5979  Network.dyn_peer[20]  lookupTimeSig:vector  ETV
vector 5989  Network.dyn_peer[24]  lookupHopsSig:vector  ETV
vector 5990  Network.dyn_peer[24]  lookupStabilitySig:vector  ETV
vector 5991  Network.dyn_peer[24]  lookupTimeSig:vector  ETV
vector 5992  Network.dyn_peer[25]  lookupHopsSig:vector  ETV
vector 5993  Network.dyn_peer[25]  lookupStabilitySig:vector  ETV
vector 5994  Network.dyn_peer[25]  lookupTimeSig:vector  ETV
vector 5998  Network.dyn_peer[27]  lookupHopsSig:vector  ETV
vector 5999  Network.dyn_peer[27]  lookupStabilitySig:vector  ETV
vector 6000  Network.dyn_peer[27]  lookupTimeSig:vector  ETV
vector 6010  Network.dyn_peer[31]  lookupHopsSig:vector  ETV
vector 6011  Network.dyn_peer[31]  lookupStabilitySig:vector  ETV
vector 6012  Network.dyn_peer[31]  lookupTimeSig:vector  ETV
vector 5983  Network.dyn_peer[22]  lookupHopsSig:vector  ETV
vector 5984  Network.dyn_peer[22]  lookupStabilitySig:vector  ETV
vector 5985  Network.dyn_peer[22]  lookupTimeSig:vector  ETV
vector 5986  Network.dyn_peer[23]  lookupHopsSig:vector  ETV
vector 5987  Network.dyn_peer[23]  lookupStabilitySig:vector  ETV
vector 5988  Network.dyn_peer[23]  lookupTimeSig:vector  ETV
vector 5926  Network.dyn_peer[3]  lookupHopsSig:vector  ETV
vector 5927  Network.dyn_peer[3]  lookupStabilitySig:vector  ETV
vector 5928  Network.dyn_peer[3]  lookupTimeSig:vector  ETV
vector 5929  Network.dyn_peer[4]  lookupHopsSig:vector  ETV
vector 5930  Network.dyn_peer[4]  lookupStabilitySig:vector  ETV
vector 5931  Network.dyn_peer[4]  lookupTimeSig:vector  ETV
vector 5980  Network.dyn_peer[21]  lookupHopsSig:vector  ETV
vector 5981  Network.dyn_peer[21]  lookupStabilitySig:vector  ETV
vector 5982  Network.dyn_peer[21]  lookupTimeSig:vector  ETV
vector 5917  Network.dyn_peer[0]  lookupHopsSig:vector  ETV
vector 5918  Network.dyn_peer[0]  lookupStabilitySig:vector  ETV
vector 5919  Network.dyn_peer[0]  lookupTimeSig:vector  ETV
5917	403	20.501	5
5917	894	21.301	8
5917	1263	21.624079205815	2
5917	1981	22.316002299165	2
5917	2320	22.524754597635	8
5917	2612	22.823190293448	5
5917	3455	23.425322350575	7
5917	4343	24.225322350575	8
5917	4684	24.537617364349	6
5917	4763	24.627212815579	3
5917	5000	24.838250760433	2
5917	5009	24.839898923023	1
5917	5744	25.449978345333	7
5917	6068	25.74195428652	6
5917	6368	25.95939184816	16
5917	6385	25.965222581585	4
5917	6422	25.972805972682	0
5917	6667	26.172805972682	1
5917	7017	26.472999021202	1
5917	7566	26.874099021202	4
5917	8348	27.574099021202	7
5917	8850	27.979739139587	2
5917	9078	28.181830250252	1
5917	9787	28.783876926445	7
5917	10319	29.283876926445	4
5917	10592	29.497813019454	4
5917	11635	30.298913019454	11
5917	12543	30.998913019454	8
5917	12947	31.401056221435	3
5917	13261	31.705965548848	3
5917	14155	32.405965548848	6
5917	14626	32.72061227062	2
5917	14805	32.912029758392	2
5917	15030	33.121149094893	3
5917	15284	33.326144312713	1
5917	16704	34.533246662274	13
5917	16961	34.733246662274	1
5917	18685	36.344636330309	15
5917	19263	36.845736330309	5
5917	20140	37.645736330309	8
5917	20512	37.952832346953	2
5917	20847	38.253908896209	2
5917	21112	38.477310577793	3
5917	21345	38.684321361762	2
5917	21513	38.860412215935	5
5917	22330	39.470361353765	8
5917	22720	39.770361353765	2
5917	23942	40.680691386719	8
5917	25002	41.686766640766	9
5917	25253	41.894868944162	1
5917	25984	42.50155364447	5
5917	26618	43.009704423904	4
5917	26815	43.212961875201	1
5917	26827	43.217418902482	1
5917	27460	43.719218899446	5
5917	27848	44.019218899446	2
5917	28682	44.619636061516	6
5917	29045	44.931110039707	2
5917	29361	45.258277158012	9
5917	29513	45.438970730527	4
5917	29621	45.563817741026	2
5917	30082	45.965128941062	5
5917	31233	46.770538600931	7
5917	31513	46.973937528625	1
5917	32354	47.570826279031	4
5917	32397	47.58193271826	7
5917	32551	47.74229857789	8
5917	33039	48.147481995644	4
5917	33793	48.847481995644	6
5917	34159	49.148525598589	2
5917	34511	49.455721529849	2
5917	34524	49.460361433764	2
5917	35278	50.064946838148	6
5917	35622	50.364946838148	2
5917	35881	50.550989091787	1
5917	36041	50.66862686995	2
5917	36721	51.16972686995	5
5917	37713	51.96972686995	8
5917	39006	52.98307118534	10
5917	39019	52.986959769269	10
5917	39948	53.892898729509	8
5917	39950	53.893066220958	8
5917	40298	54.194166220958	3
5917	40843	54.697292547149	5
5917	40999	54.904593342502	1
5917	41219	55.108418241698	1
5917	41285	55.124615871972	1
5917	41418	55.310301624136	1
5917	41638	55.42994554428	3
5917	41721	55.513207351153	1
5917	41970	55.72526029038	5
5917	42287	55.929055220686	3
5917	43086	56.729055220686	7
5917	43859	57.331012466201	6
5917	44229	57.636774035375	2
5917	44452	57.853697247503	1
5917	45543	58.755567912405	9
5917	45569	58.762317491518	0
5917	45998	59.062317491518	2
5917	47620	60.164705782556	13
5917	48457	60.764705782556	6
5917	48766	60.967518296982	1
5917	49295	61.368541911671	5
5917	49302	61.371373627567	5
5917	49555	61.570658924417	1
5917	49791	61.771682124624	1
5917	50362	62.273492601932	4
5917	50519	62.379225997777	11
5917	50634	62.472316216707	7
5917	50782	62.578089141034	13
5917	50900	62.683524000718	2
5917	51904	63.490111205345	8
5917	52407	63.890111205345	4
5917	53337	64.698584531014	7
5917	53756	65.101622600591	3
5917	54425	65.604950547249	7
5917	54429	65.606070857384	7
5917	54698	65.823734368982	1
5917	54998	66.075680300876	7
5917	55291	66.27695079137	2
5917	55895	66.77695079137	4
5917	56219	67.084725698166	2
5917	56653	67.522299977807	4
5917	56702	67.587559495776	4
5917	57600	68.398561308222	9
5917	58513	69.198561308222	7
5917	58770	69.40514759157	2
5917	59449	69.912879541659	5
5917	59880	70.220889906062	2
5917	60620	70.712498144021	3
5917	60837	70.929678538706	7
5917	60958	71.020197071167	2
5917	61096	71.138423649229	1
5917	61099	71.140695082589	2
5917	61261	71.325540161649	2
5917	61384	71.446711028081	2
5917	61407	71.449742448343	2
5917	61538	71.588148911627	1
5917	61617	71.659571588805	3
5917	61664	71.730928226785	3
5917	61764	71.791011050959	1
5917	61887	71.899774972388	1
5917	62080	72.099774972388	1
5917	62443	72.421492712795	2
5917	63011	72.822592712795	4
5917	63973	73.622592712795	8
5917	64209	73.823405540714	1
5917	65974	75.230890679446	14
5917	66317	75.535264445636	2
5917	66578	75.741410710893	2
5917	67089	76.141782271969	3
5917	67729	76.641840647787	4
5917	68024	76.947242672794	2
5917	68396	77.256329296246	3
5917	68422	77.27886190723	3
5917	68625	77.458433990709	1
5917	68919	77.686179172672	3
5917	68964	77.761273641227	2
5917	69174	77.966939612107	1
5917	69646	78.36834455236	3
5917	70018	78.682977121071	1
5917	70045	78.690790793635	10
5917	70124	78.779387349489	3
5917	70269	78.88856484718	1
5917	71039	79.48856484718	6
5917	71654	79.931075188402	1
5917	71721	79.997395254902	5
5917	72023	80.205957379	2
5917	72957	80.905957379	6
5917	73525	81.309497821447	4
5917	74181	81.809497821447	4
5917	74711	82.215566980849	4
5917	75087	82.523425687937	8
5917	75291	82.72427114307	4
5917	75462	82.915467614925	4
5917	75626	83.028166466419	4
5917	76017	83.410735110723	7
5917	76026	83.416567614925	4
5917	76061	83.424722425646	4
5917	76253	83.527464193089	1
5917	77106	84.127464193089	7
5917	77155	84.133056695918	1
5917	77411	84.337822574576	2
5917	78043	84.937822574576	5
5917	78360	85.144824044611	2
5917	78798	85.444824044611	2
5917	79184	85.754389580266	2
5917	79417	85.95650396576	1
5917	79533	86.058888830682	1
5917	79876	86.370097656317	2
5917	80000	86.473823188081	0
5917	81016	87.274923188081	9
5917	81429	87.574923188081	2
5917	82240	88.358679793979	2
5917	82286	88.385133473597	7
5917	82981	88.989731946403	6
5917	83921	89.689731946403	6
5917	84326	89.990299177688	2
5917	84448	90.107660670536	2
5917	84937	90.509330083346	4
5917	85631	91.109330083346	7
5917	85923	91.384881790513	4
5917	86196	91.59012481234	1
5917	86594	91.899259612733	3
5917	87143	92.299259612733	3
5917	88576	93.609006256207	14
5917	88702	93.711955532937	14
5917	89162	94.117456549501	3
5917	89373	94.315873235834	3
5917	89480	94.41366412816	8
5917	89781	94.615167411475	2
5917	90129	94.919132430499	2
5917	90806	95.525870231883	5
5917	90822	95.526970231883	0
5917	91064	95.726970231883	1
5917	91304	95.927847963269	1
5917	91314	95.932755849855	1
5917	92027	96.535717285878	5
5917	92033	96.538406271806	5
5917	92758	97.043853860282	4
5917	92764	97.045482817647	4
5917	93027	97.250627183223	1
5917	93032	97.252139889091	1
5917	93565	97.653239889091	4
5917	94002	97.953239889091	2
5917	94556	98.464776802685	4
5917	95465	99.371539064497	8
5917	95844	99.78108948785	3
5917	96023	99.945332736826	5
5917	96227	100.087530304339	2
5917	96517	100.353084794846	3
5917	96692	100.489361492759	3
5917	96843	100.608805242503	1
5917	96906	100.648776621943	7
5917	97015	100.758693515685	4
5917	98095	101.564263061997	8
5917	98844	102.164263061997	5
5917	99274	102.47059892978	2
5917	99722	102.749039934084	4
5917	99795	102.802019509478	4
5917	99978	102.960179521732	4
5917	100094	103.050224443061	2
5917	100470	103.357424259572	3
5917	101591	104.357424259572	12
5917	101886	104.660579291961	2
5917	102226	104.968413963466	2
5917	102832	105.375522606313	3
5917	102846	105.380975672518	3
5917	102989	105.482489437772	1
5917	104130	106.282489437772	8
5917	105251	107.185078944744	9
5917	105459	107.342708946768	4
5917	105726	107.594673699369	3
5917	105874	107.701088136948	1
5917	107180	108.701088136948	9
5917	107595	108.999104310432	9
5917	107824	109.197076246226	12
5917	107831	109.20345105321	5
5917	107840	109.207916346394	1
5917	108509	109.812615581958	6
5917	108768	110.015620545903	1
5917	109476	110.638435036266	5
5917	109634	110.760038522276	3
5917	109834	110.969311706296	1
5917	109850	110.97366279068	0
5917	110342	111.485734451151	4
5917	110830	111.893192120502	4
5917	111204	112.197546139542	3
5917	112319	113.097546139542	9
5917	112649	113.428294222622	2
5917	112869	113.651902306252	1
5917	113329	114.060701200534	5
5917	113889	114.560701200534	4
5917	114247	114.869325112572	3
5917	114786	115.270425112572	4
5917	116720	116.970425112572	19
5917	117678	117.678191286176	7
5917	117753	117.722780912453	3
5917	118003	117.93262274186	1
5917	118563	118.335323380739	4
5917	119264	118.935323380739	6
5917	119459	119.13697767073	1
5917	119604	119.244744706956	1
5917	119741	119.383636446802	1
5917	119822	119.452210466199	1
5917	120686	120.160963316187	7
5917	121283	120.660963316187	4
5917	121823	121.168168339404	5
5917	122056	121.32091283935	6
5917	122431	121.677096741363	5
5917	122504	121.722726519132	3
5917	122760	121.983888312923	2
5917	122858	122.030207076336	2
5917	123111	122.233263712426	2
5917	123411	122.533263712426	2
5917	124473	123.541083001853	11
5917	124835	123.849095505351	3
5917	125100	124.049095505351	1
5917	125880	124.828248492484	0
5917	126769	125.628248492484	7
5917	127308	126.036095654209	5
5917	128331	126.936095654209	10
5917	128611	127.144298136754	1
5917	128920	127.349166958404	1
5917	129675	127.858562455207	4
5917	130056	128.159792236268	2
5917	130526	128.551997457759	9
5917	130599	128.603345112981	9
5917	130857	128.852739297482	3
5917	131038	128.961325466402	7
5917	131057	128.969724328218	7
5917	131306	129.170667879957	1
5917	131315	129.177598091471	1
5917	131617	129.384219999868	2
5917	131985	129.684219999868	2
5917	132815	130.40435874642	6
5917	133442	130.913140057773	4
5917	134625	131.914371537852	11
5917	134974	132.214371537852	2
5917	135476	132.618261469662	3
5917	135490	132.628190360355	3
5917	136477	133.432357683599	8
5917	136481	133.434853892097	8
5917	136654	133.535953892097	2
5917	136902	133.735953892097	1
5917	137696	134.386589201088	3
5917	138222	134.886589201088	4
5917	138507	135.092631964113	1
5917	138997	135.495618435672	4
5917	140133	136.402863979172	10
5917	140561	136.902863979172	4
5917	140716	137.106080997085	1
5917	140887	137.373730100832	4
5917	140918	137.406139174852	2
5918	403	20.501	0.375
5918	894	21.301	0
5918	1263	21.624079205815	0.75
5918	1981	22.316002299165	0.75
5918	2320	22.524754597635	0
5918	2612	22.823190293448	0.375
5918	3455	23.425322350575	0.125
5918	4343	24.225322350575	0
5918	4684	24.537617364349	0.25
5918	4763	24.627212815579	0.625
5918	5000	24.838250760433	0.75
5918	5009	24.839898923023	0.875
5918	5744	25.449978345333	0.125
5918	6068	25.74195428652	0.25
5918	6368	25.95939184816	-1
5918	6385	25.965222581585	0.5
5918	6422	25.972805972682	1
5918	6667	26.172805972682	0.875
5918	7017	26.472999021202	0.875
5918	7566	26.874099021202	0.5
5918	8348	27.574099021202	0.125
5918	8850	27.979739139587	0.75
5918	9078	28.181830250252	0.875
5918	9787	28.783876926445	0.125
5918	10319	29.283876926445	0.5
5918	10592	29.497813019454	0.5
5918	11635	30.298913019454	-0.375
5918	12543	30.998913019454	0
5918	12947	31.401056221435	0.625
5918	13261	31.705965548848	0.625
5918	14155	32.405965548848	0.25
5918	14626	32.72061227062	0.75
5918	14805	32.912029758392	0.75
5918	15030	33.121149094893	0.625
5918	15284	33.326144312713	0.875
5918	16704	34.533246662274	-0.625
5918	16961	34.733246662274	0.875
5918	18685	36.344636330309	-0.875
5918	19263	36.845736330309	0.375
5918	20140	37.645736330309	0
5918	20512	37.952832346953	0.75
5918	20847	38.253908896209	0.75
5918	21112	38.477310577793	0.625
5918	21345	38.684321361762	0.75
5918	21513	38.860412215935	0.375
5918	22330	39.470361353765	0
5918	22720	39.770361353765	0.75
5918	23942	40.680691386719	0
5918	25002	41.686766640766	-0.125
5918	25253	41.894868944162	0.875
5918	25984	42.50155364447	0.375
5918	26618	43.009704423904	0.5
5918	26815	43.212961875201	0.875
5918	26827	43.217418902482	0.875
5918	27460	43.719218899446	0.375
5918	27848	44.019218899446	0.75
5918	28682	44.619636061516	0.25
5918	29045	44.931110039707	0.75
5918	29361	45.258277158012	-0.125
5918	29513	45.438970730527	0.5
5918	29621	45.563817741026	0.75
5918	30082	45.965128941062	0.375
5918	31233	46.770538600931	0.125
5918	31513	46.973937528625	0.875
5918	32354	47.570826279031	0.5
5918	32397	47.58193271826	0.125
5918	32551	47.74229857789	0
5918	33039	48.147481995644	0.5
5918	33793	48.847481995644	0.25
5918	34159	49.148525598589	0.75
5918	34511	49.455721529849	0.75
5918	34524	49.460361433764	0.75
5918	35278	50.064946838148	0.25
5918	35622	50.364946838148	0.75
5918	35881	50.550989091787	0.875
5918	36041	50.66862686995	0.75
5918	36721	51.16972686995	0.375
5918	37713	51.96972686995	0
5918	39006	52.98307118534	-0.25
5918	39019	52.986959769269	-0.25
5918	39948	53.892898729509	0
5918	39950	53.893066220958	0
5918	40298	54.194166220958	0.625
5918	40843	54.697292547149	0.375
5918	40999	54.904593342502	0.875
5918	41219	55.108418241698	0.875
5918	41285	55.124615871972	0.875
5918	41418	55.310301624136	0.875
5918	41638	55.42994554428	0.66666665673256
5918	41721	55.513207351153	0.875
5918	41970	55.72526029038	0.375
5918	42287	55.929055220686	0.625
5918	43086	56.729055220686	0.125
5918	43859	57.331012466201	0.25
5918	44229	57.636774035375	0.75
5918	44452	57.853697247503	0.875
5918	45543	58.755567912405	-0.125
5918	45569	58.762317491518	1
5918	45998	59.062317491518	0.75
5918	47620	60.164705782556	-0.625
5918	48457	60.764705782556	0.25
5918	48766	60.967518296982	0.875
5918	49295	61.368541911671	0.375
5918	49302	61.371373627567	0.375
5918	49555	61.570658924417	0.875
5918	49791	61.771682124624	0.875
5918	50362	62.273492601932	0.5
5918	50519	62.379225997777	-0.375
5918	50634	62.472316216707	0.125
5918	50782	62.578089141034	-0.625
5918	50900	62.683524000718	0.75
5918	51904	63.490111205345	0
5918	52407	63.890111205345	0.5
5918	53337	64.698584531014	0.125
5918	53756	65.101622600591	0.625
5918	54425	65.604950547249	0.125
5918	54429	65.606070857384	0.125
5918	54698	65.823734368982	0.875
5918	54998	66.075680300876	0.125
5918	55291	66.27695079137	0.75
5918	55895	66.77695079137	0.5
5918	56219	67.084725698166	0.75
5918	56653	67.522299977807	0.5
5918	56702	67.587559495776	0.5
5918	57600	68.398561308222	-0.125
5918	58513	69.198561308222	0.125
5918	58770	69.40514759157	0.75
5918	59449	69.912879541659	0.375
5918	59880	70.220889906062	0.75
5918	60620	70.712498144021	0.625
5918	60837	70.929678538706	0.125
5918	60958	71.020197071167	0.75
5918	61096	71.138423649229	0.875
5918	61099	71.140695082589	0.75
5918	61261	71.325540161649	0.75
5918	61384	71.446711028081	0.75
5918	61407	71.449742448343	0.75
5918	61538	71.588148911627	0.875
5918	61617	71.659571588805	0.625
5918	61664	71.730928226785	0.625
5918	61764	71.791011050959	0.875
5918	61887	71.899774972388	0.875
5918	62080	72.099774972388	0.875
5918	62443	72.421492712795	0.75
5918	63011	72.822592712795	0.5
5918	63973	73.622592712795	0
5918	64209	73.823405540714	0.875
5918	65974	75.230890679446	-0.75
5918	66317	75.535264445636	0.75
5918	66578	75.741410710893	0.75
5918	67089	76.141782271969	0.625
5918	67729	76.641840647787	0.5
5918	68024	76.947242672794	0.75
5918	68396	77.256329296246	0.625
5918	68422	77.27886190723	0.625
5918	68625	77.458433990709	0.875
5918	68919	77.686179172672	0.625
5918	68964	77.761273641227	0.75
5918	69174	77.966939612107	0.875
5918	69646	78.36834455236	0.625
5918	70018	78.682977121071	0.875
5918	70045	78.690790793635	-0.25
5918	70124	78.779387349489	0.625
5918	70269	78.88856484718	0.875
5918	71039	79.48856484718	0.25
5918	71654	79.931075188402	0.875
5918	71721	79.997395254902	0.375
5918	72023	80.205957379	0.75
5918	72957	80.905957379	0.25
5918	73525	81.309497821447	0.5
5918	74181	81.809497821447	0.5
5918	74711	82.215566980849	0.5
5918	75087	82.523425687937	0
5918	75291	82.72427114307	0.5
5918	75462	82.915467614925	0.5
5918	75626	83.028166466419	0.5
5918	76017	83.410735110723	0.125
5918	76026	83.416567614925	0.5
5918	76061	83.424722425646	0.5
5918	76253	83.527464193089	0.875
5918	77106	84.127464193089	0.125
5918	77155	84.133056695918	0.875
5918	77411	84.337822574576	0.75
5918	78043	84.937822574576	0.375
5918	78360	85.144824044611	0.75
5918	78798	85.444824044611	0.75
5918	79184	85.754389580266	0.75
5918	79417	85.95650396576	0.875
5918	79533	86.058888830682	0.875
5918	79876	86.370097656317	0.75
5918	80000	86.473823188081	1
5918	81016	87.274923188081	-0.125
5918	81429	87.574923188081	0.75
5918	82240	88.358679793979	0.75
5918	82286	88.385133473597	0.125
5918	82981	88.989731946403	0.25
5918	83921	89.689731946403	0.25
5918	84326	89.990299177688	0.75
5918	84448	90.107660670536	0.75
5918	84937	90.509330083346	0.5
5918	85631	91.109330083346	0.125
5918	85923	91.384881790513	0.5
5918	86196	91.59012481234	0.875
5918	86594	91.899259612733	0.625
5918	87143	92.299259612733	0.625
5918	88576	93.609006256207	-0.75
5918	88702	93.711955532937	-0.75
5918	89162	94.117456549501	0.625
5918	89373	94.315873235834	0.625
5918	89480	94.41366412816	0
5918	89781	94.615167411475	0.75
5918	90129	94.919132430499	0.75
5918	90806	95.525870231883	0.375
5918	90822	95.526970231883	1
5918	91064	95.726970231883	0.875
5918	91304	95.927847963269	0.875
5918	91314	95.932755849855	0.875
5918	92027	96.535717285878	0.375
5918	92033	96.538406271806	0.375
5918	92758	97.043853860282	0.5
5918	92764	97.045482817647	0.5
5918	93027	97.250627183223	0.875
5918	93032	97.252139889091	0.875
5918	93565	97.653239889091	0.5
5918	94002	97.953239889091	0.75
5918	94556	98.464776802685	0.5
5918	95465	99.371539064497	0
5918	95844	99.78108948785	0.625
5918	96023	99.945332736826	0.375
5918	96227	100.087530304339	0.75
5918	96517	100.353084794846	0.625
5918	96692	100.489361492759	0.625
5918	96843	100.608805242503	0.875
5918	96906	100.648776621943	0.125
5918	97015	100.758693515685	0.5
5918	98095	101.564263061997	0
5918	98844	102.164263061997	0.375
5918	99274	102.47059892978	0.75
5918	99722	102.749039934084	0.5
5918	99795	102.802019509478	0.5
5918	99978	102.960179521732	0.5
5918	100094	103.050224443061	0.75
5918	100470	103.357424259572	0.625
5918	101591	104.357424259572	-0.5
5918	101886	104.660579291961	0.75
5918	102226	104.968413963466	0.75
5918	102832	105.375522606313	0.625
5918	102846	105.380975672518	0.625
5918	102989	105.482489437772	0.875
5918	104130	106.282489437772	0
5918	105251	107.185078944744	-0.125
5918	105459	107.342708946768	0.5
5918	105726	107.594673699369	0.625
5918	105874	107.701088136948	0.875
5918	107180	108.701088136948	-0.125
5918	107595	108.999104310432	-0.125
5918	107824	109.197076246226	-0.5
5918	107831	109.20345105321	0.375
5918	107840	109.207916346394	0.875
5918	108509	109.812615581958	0.25
5918	108768	110.015620545903	0.875
5918	109476	110.638435036266	0.375
5918	109634	110.760038522276	0.625
5918	109834	110.969311706296	0.875
5918	109850	110.97366279068	1
5918	110342	111.485734451151	0.5
5918	110830	111.893192120502	0.5
5918	111204	112.197546139542	0.625
5918	112319	113.097546139542	-0.125
5918	112649	113.428294222622	0.75
5918	112869	113.651902306252	0.875
5918	113329	114.060701200534	0.375
5918	113889	114.560701200534	0.5
5918	114247	114.869325112572	0.625
5918	114786	115.270425112572	0.5
5918	116720	116.970425112572	-1.375
5918	117678	117.678191286176	0.125
5918	117753	117.722780912453	0.625
5918	118003	117.93262274186	0.875
5918	118563	118.335323380739	0.5
5918	119264	118.935323380739	0.25
5918	119459	119.13697767073	0.875
5918	119604	119.244744706956	0.875
5918	119741	119.383636446802	0.875
5918	119822	119.452210466199	0.875
5918	120686	120.160963316187	0.125
5918	121283	120.660963316187	0.5
5918	121823	121.168168339404	0.375
5918	122056	121.32091283935	0.25
5918	122431	121.677096741363	0.375
5918	122504	121.722726519132	0.625
5918	122760	121.983888312923	0.75
5918	122858	122.030207076336	0.75
5918	123111	122.233263712426	0.75
5918	123411	122.533263712426	0.75
5918	124473	123.541083001853	-0.375
5918	124835	123.849095505351	0.625
5918	125100	124.049095505351	0.875
5918	125880	124.828248492484	1
5918	126769	125.628248492484	0.125
5918	127308	126.036095654209	0.375
5918	128331	126.936095654209	-0.25
5918	128611	127.144298136754	0.875
5918	128920	127.349166958404	0.875
5918	129675	127.858562455207	0.5
5918	130056	128.159792236268	0.75
5918	130526	128.551997457759	-0.125
5918	130599	128.603345112981	-0.125
5918	130857	128.852739297482	0.625
5918	131038	128.961325466402	0.125
5918	131057	128.969724328218	0.125
5918	131306	129.170667879957	0.875
5918	131315	129.177598091471	0.875
5918	131617	129.384219999868	0.75
5918	131985	129.684219999868	0.75
5918	132815	130.40435874642	0.25
5918	133442	130.913140057773	0.5
5918	134625	131.914371537852	-0.375
5918	134974	132.214371537852	0.75
5918	135476	132.618261469662	0.625
5918	135490	132.628190360355	0.625
5918	136477	133.432357683599	0
5918	136481	133.434853892097	0
5918	136654	133.535953892097	0.75
5918	136902	133.735953892097	0.875
5918	137696	134.386589201088	0.625
5918	138222	134.886589201088	0.5
5918	138507	135.092631964113	0.875
5918	138997	135.495618435672	0.5
5918	140133	136.402863979172	-0.25
5918	140561	136.902863979172	0.5
5918	140716	137.106080997085	0.875
5918	140887	137.373730100832	0.5
5918	140918	137.406139174852	0.75
5919	403	20.501	0.5
5919	894	21.301	0.8
5919	1263	21.624079205815	0.3
5919	1981	22.316002299165	0.3
5919	2320	22.524754597635	0.9
5919	2612	22.823190293448	0.5
5919	3455	23.425322350575	0.6
5919	4343	24.225322350575	0.8
5919	4684	24.537617364349	0.7
5919	4763	24.627212815579	0.4
5919	5000	24.838250760433	0.3
5919	5009	24.839898923023	0.2
5919	5744	25.449978345333	0.7
5919	6068	25.74195428652	0.7
5919	6368	25.95939184816	1.5
5919	6385	25.965222581585	0.5
5919	6422	25.972805972682	0
5919	6667	26.172805972682	0.2
5919	7017	26.472999021202	0.2
5919	7566	26.874099021202	0.4
5919	8348	27.574099021202	0.7
5919	8850	27.979739139587	0.3
5919	9078	28.181830250252	0.2
5919	9787	28.783876926445	0.6
5919	10319	29.283876926445	0.5
5919	10592	29.497813019454	0.4
5919	11635	30.298913019454	0.8
5919	12543	30.998913019454	0.7
5919	12947	31.401056221435	0.4
5919	13261	31.705965548848	0.3
5919	14155	32.405965548848	0.7
5919	14626	32.72061227062	0.3
5919	14805	32.912029758392	0.3
5919	15030	33.121149094893	0.4
5919	15284	33.326144312713	0.2
5919	16704	34.533246662274	1.2
5919	16961	34.733246662274	0.2
5919	18685	36.344636330309	1.6
5919	19263	36.845736330309	0.5
5919	20140	37.645736330309	0.8
5919	20512	37.952832346953	0.3
5919	20847	38.253908896209	0.3
5919	21112	38.477310577793	0.3
5919	21345	38.684321361762	0.2
5919	21513	38.860412215935	0.6
5919	22330	39.470361353765	0.6
5919	22720	39.770361353765	0.3
5919	23942	40.680691386719	0.9
5919	25002	41.686766640766	1
5919	25253	41.894868944162	0.2
5919	25984	42.50155364447	0.6
5919	26618	43.009704423904	0.5
5919	26815	43.212961875201	0.2
5919	26827	43.217418902482	0.2
5919	27460	43.719218899446	0.5
5919	27848	44.019218899446	0.3
5919	28682	44.619636061516	0.6
5919	29045	44.931110039707	0.3
5919	29361	45.258277158012	1
5919	29513	45.438970730527	0.5
5919	29621	45.563817741026	0.3
5919	30082	45.965128941062	0.4
5919	31233	46.770538600931	0.8
5919	31513	46.973937528625	0.2
5919	32354	47.570826279031	0.5
5919	32397	47.58193271826	0.6
5919	32551	47.74229857789	0.7
5919	33039	48.147481995644	0.4
5919	33793	48.847481995644	0.7
5919	34159	49.148525598589	0.3
5919	34511	49.455721529849	0.3
5919	34524	49.460361433764	0.3
5919	35278	50.064946838148	0.6
5919	35622	50.364946838148	0.3
5919	35881	50.550989091787	0.2
5919	36041	50.66862686995	0.3
5919	36721	51.16972686995	0.5
5919	37713	51.96972686995	0.8
5919	39006	52.98307118534	1
5919	39019	52.986959769269	1
5919	39948	53.892898729509	0.9
5919	39950	53.893066220958	0.9
5919	40298	54.194166220958	0.3
5919	40843	54.697292547149	0.5
5919	40999	54.904593342502	0.2
5919	41219	55.108418241698	0.2
5919	41285	55.124615871972	0.2
5919	41418	55.310301624136	0.2
5919	41638	55.42994554428	0.4
5919	41721	55.513207351153	0.2
5919	41970	55.72526029038	0.6
5919	42287	55.929055220686	0.2
5919	43086	56.729055220686	0.8
5919	43859	57.331012466201	0.6