version 2
run Stability-131-20130526-18:55:59-1898
attr configname Stability
attr datetime 20130526-18:55:59
attr experiment Stability
attr inifile omnetpp.ini
attr iterationvars $0=1e-7
attr iterationvars2 "$0=1e-7, $repetition=1"
attr measurement $0=1e-7
attr network Network
attr processid 1898
attr repetition 1
attr replication #1
attr resultdir results
attr runnumber 131
attr seedset 131

vector 12803  Network.churner  inGoingSizeSig:vector  ETV
vector 12707  Network.dyn_peer[0]  lookupHopsSig:vector  ETV
vector 12708  Network.dyn_peer[0]  lookupStabilitySig:vector  ETV
vector 12709  Network.dyn_peer[0]  lookupTimeSig:vector  ETV
vector 12755  Network.dyn_peer[16]  lookupHopsSig:vector  ETV
vector 12756  Network.dyn_peer[16]  lookupStabilitySig:vector  ETV
vector 12757  Network.dyn_peer[16]  lookupTimeSig:vector  ETV
vector 12770  Network.dyn_peer[21]  lookupHopsSig:vector  ETV
vector 12771  Network.dyn_peer[21]  lookupStabilitySig:vector  ETV
vector 12772  Network.dyn_peer[21]  lookupTimeSig:vector  ETV
vector 12782  Network.dyn_peer[25]  lookupHopsSig:vector  ETV
vector 12783  Network.dyn_peer[25]  lookupStabilitySig:vector  ETV
vector 12784  Network.dyn_peer[25]  lookupTimeSig:vector  ETV
vector 12710  Network.dyn_peer[1]  lookupHopsSig:vector  ETV
vector 12711  Network.dyn_peer[1]  lookupStabilitySig:vector  ETV
vector 12712  Network.dyn_peer[1]  lookupTimeSig:vector  ETV
vector 12722  Network.dyn_peer[5]  lookupHopsSig:vector  ETV
vector 12723  Network.dyn_peer[5]  lookupStabilitySig:vector  ETV
vector 12724  Network.dyn_peer[5]  lookupTimeSig:vector  ETV
vector 12731  Network.dyn_peer[8]  lookupHopsSig:vector  ETV
vector 12732  Network.dyn_peer[8]  lookupStabilitySig:vector  ETV
vector 12733  Network.dyn_peer[8]  lookupTimeSig:vector  ETV
vector 12737  Network.dyn_peer[10]  lookupHopsSig:vector  ETV
vector 12738  Network.dyn_peer[10]  lookupStabilitySig:vector  ETV
vector 12739  Network.dyn_peer[10]  lookupTimeSig:vector  ETV
vector 12743  Network.dyn_peer[12]  lookupHopsSig:vector  ETV
vector 12744  Network.dyn_peer[12]  lookupStabilitySig:vector  ETV
vector 12745  Network.dyn_peer[12]  lookupTimeSig:vector  ETV
vector 12746  Network.dyn_peer[13]  lookupHopsSig:vector  ETV
vector 12747  Network.dyn_peer[13]  lookupStabilitySig:vector  ETV
vector 12748  Network.dyn_peer[13]  lookupTimeSig:vector  ETV
vector 12749  Network.dyn_peer[14]  lookupHopsSig:vector  ETV
vector 12750  Network.dyn_peer[14]  lookupStabilitySig:vector  ETV
vector 12751  Network.dyn_peer[14]  lookupTimeSig:vector  ETV
vector 12752  Network.dyn_peer[15]  lookupHopsSig:vector  ETV
vector 12753  Network.dyn_peer[15]  lookupStabilitySig:vector  ETV
vector 12754  Network.dyn_peer[15]  lookupTimeSig:vector  ETV
vector 12767  Network.dyn_peer[20]  lookupHopsSig:vector  ETV
vector 12768  Network.dyn_peer[20]  lookupStabilitySig:vector  ETV
vector 12769  Network.dyn_peer[20]  lookupTimeSig:vector  ETV
vector 12791  Network.dyn_peer[28]  lookupHopsSig:vector  ETV
vector 12792  Network.dyn_peer[28]  lookupStabilitySig:vector  ETV
vector 12793  Network.dyn_peer[28]  lookupTimeSig:vector  ETV
vector 12728  Network.dyn_peer[7]  lookupHopsSig:vector  ETV
vector 12729  Network.dyn_peer[7]  lookupStabilitySig:vector  ETV
vector 12730  Network.dyn_peer[7]  lookupTimeSig:vector  ETV
vector 12758  Network.dyn_peer[17]  lookupHopsSig:vector  ETV
vector 12759  Network.dyn_peer[17]  lookupStabilitySig:vector  ETV
vector 12760  Network.dyn_peer[17]  lookupTimeSig:vector  ETV
vector 12773  Network.dyn_peer[22]  lookupHopsSig:vector  ETV
vector 12774  Network.dyn_peer[22]  lookupStabilitySig:vector  ETV
vector 12775  Network.dyn_peer[22]  lookupTimeSig:vector  ETV
vector 12776  Network.dyn_peer[23]  lookupHopsSig:vector  ETV
vector 12777  Network.dyn_peer[23]  lookupStabilitySig:vector  ETV
vector 12778  Network.dyn_peer[23]  lookupTimeSig:vector  ETV
vector 12779  Network.dyn_peer[24]  lookupHopsSig:vector  ETV
vector 12780  Network.dyn_peer[24]  lookupStabilitySig:vector  ETV
vector 12781  Network.dyn_peer[24]  lookupTimeSig:vector  ETV
vector 12788  Network.dyn_peer[27]  lookupHopsSig:vector  ETV
vector 12789  Network.dyn_peer[27]  lookupStabilitySig:vector  ETV
vector 12790  Network.dyn_peer[27]  lookupTimeSig:vector  ETV
vector 12800  Network.dyn_peer[31]  lookupHopsSig:vector  ETV
vector 12801  Network.dyn_peer[31]  lookupStabilitySig:vector  ETV
vector 12802  Network.dyn_peer[31]  lookupTimeSig:vector  ETV
vector 12716  Network.dyn_peer[3]  lookupHopsSig:vector  ETV
vector 12717  Network.dyn_peer[3]  lookupStabilitySig:vector  ETV
vector 12718  Network.dyn_peer[3]  lookupTimeSig:vector  ETV
vector 12725  Network.dyn_peer[6]  lookupHopsSig:vector  ETV
vector 12726  Network.dyn_peer[6]  lookupStabilitySig:vector  ETV
vector 12727  Network.dyn_peer[6]  lookupTimeSig:vector  ETV
vector 12734  Network.dyn_peer[9]  lookupHopsSig:vector  ETV
vector 12735  Network.dyn_peer[9]  lookupStabilitySig:vector  ETV
vector 12736  Network.dyn_peer[9]  lookupTimeSig:vector  ETV
vector 12761  Network.dyn_peer[18]  lookupHopsSig:vector  ETV
vector 12762  Network.dyn_peer[18]  lookupStabilitySig:vector  ETV
vector 12763  Network.dyn_peer[18]  lookupTimeSig:vector  ETV
vector 12785  Network.dyn_peer[26]  lookupHopsSig:vector  ETV
vector 12786  Network.dyn_peer[26]  lookupStabilitySig:vector  ETV
vector 12787  Network.dyn_peer[26]  lookupTimeSig:vector  ETV
vector 12740  Network.dyn_peer[11]  lookupHopsSig:vector  ETV
vector 12741  Network.dyn_peer[11]  lookupStabilitySig:vector  ETV
vector 12742  Network.dyn_peer[11]  lookupTimeSig:vector  ETV
vector 12794  Network.dyn_peer[29]  lookupHopsSig:vector  ETV
vector 12795  Network.dyn_peer[29]  lookupStabilitySig:vector  ETV
vector 12796  Network.dyn_peer[29]  lookupTimeSig:vector  ETV
vector 12764  Network.dyn_peer[19]  lookupHopsSig:vector  ETV
vector 12765  Network.dyn_peer[19]  lookupStabilitySig:vector  ETV
vector 12766  Network.dyn_peer[19]  lookupTimeSig:vector  ETV
vector 12797  Network.dyn_peer[30]  lookupHopsSig:vector  ETV
vector 12798  Network.dyn_peer[30]  lookupStabilitySig:vector  ETV
vector 12799  Network.dyn_peer[30]  lookupTimeSig:vector  ETV
vector 12713  Network.dyn_peer[2]  lookupHopsSig:vector  ETV
vector 12714  Network.dyn_peer[2]  lookupStabilitySig:vector  ETV
vector 12715  Network.dyn_peer[2]  lookupTimeSig:vector  ETV
vector 12719  Network.dyn_peer[4]  lookupHopsSig:vector  ETV
vector 12720  Network.dyn_peer[4]  lookupStabilitySig:vector  ETV
vector 12721  Network.dyn_peer[4]  lookupTimeSig:vector  ETV
12707	29	20.0000000001	0
12707	398	20.5000000001	4
12707	646	20.909142713649	3
12707	989	21.316548961207	4
12707	1301	21.620175829496	2
12707	1489	21.811406776129	2
12707	1753	22.017337431152	2
12707	1983	22.217337431152	1
12707	2585	22.718192687256	5
12707	2805	22.833442432102	2
12707	3050	23.023644120737	2
12707	3199	23.136262093178	1
12707	3720	23.528628629061	6
12707	4187	23.835436771259	3
12707	4696	24.235436771259	3
12707	4920	24.437870377191	1
12707	5778	25.158009530673	6
12707	6191	25.46290242755	2
12707	6287	25.554272590493	6
12707	6538	25.767975058363	2
12707	6893	25.968075058463	2
12707	7156	26.168075058463	1
12707	7601	26.574146188609	3
12707	9012	27.57139782645	8
12707	9971	28.377923278044	8
12707	10397	28.777923278044	4
12707	10928	29.285606398723	4
12707	11239	29.591335721887	2
12707	11596	29.897323846235	2
12707	12197	30.419009177485	4
12707	13125	31.126852329815	7
12707	13695	31.526852329815	3
12707	13970	31.735534938838	1
12707	14023	31.799406447782	1
12707	14268	32.001125387424	2
12707	14584	32.301125387424	2
12707	15140	32.8031596498	4
12707	15295	32.907688569339	1
12707	16168	33.507688569339	7
12707	16876	34.011234436839	5
12707	17453	34.41940912663	4
12707	17839	34.71940912663	2
12707	18317	35.120218484282	3
12707	18574	35.350750173637	2
12707	19359	36.053188964721	7
12707	20776	37.353188964721	13
12707	20956	37.557532175708	1
12707	21316	37.903112129114	2
12707	22015	38.407414134413	5
12707	23423	39.524406304762	4
12707	23708	39.730470517626	2
12707	24131	40.130470517626	3
12707	24682	40.637353254965	4
12707	24684	40.6373722478	4
12707	24934	40.839613640701	1
12707	25283	41.143480242664	4
12707	26198	41.943480242664	8
12707	26498	42.143580242764	2
12707	28058	43.543580242764	13
12707	28344	43.749588260869	9
12707	29556	44.649688260969	11
12707	30066	45.057881230816	3
12707	31062	45.86780402074	7
12707	32570	47.16790402084	15
12707	33081	47.56790402084	3
12707	33942	48.173599353184	7
12707	34383	48.473599353184	2
12707	35033	48.973699353284	5
12707	35478	49.373699353284	4
12707	35720	49.582017918294	1
12707	36494	50.12344481623	1
12707	36992	50.523656620031	4
12707	38594	52.023656620031	17
12707	39658	52.929275246473	8
12707	40001	53.230938761717	2
12707	40359	53.538584415626	3
12707	40915	54.038584415626	4
12707	41504	54.446833036837	4
12707	41806	54.646833036837	1
12707	42366	55.155533079429	5
12707	42971	55.664300438797	6
12707	43251	55.964300438797	2
12707	43606	56.273869794707	2
12707	43869	56.473969794807	2
12707	44659	57.273969794807	7
12707	45232	57.782030529465	4
12707	45575	58.094254718215	3
12707	46378	58.69909118479	8
12707	46399	58.744832533027	7
12707	47023	59.252473005982	5
12707	47615	59.752473005982	4
12707	48057	60.05250600623	2
12707	49003	60.860510437346	8
12707	49704	61.460510437346	5
12707	50234	61.864141954814	3
12707	50712	62.274548009495	3
12707	50911	62.407084971304	3
12707	52540	63.810258125775	15
12707	53612	64.610258125775	8
12707	53891	64.826012298992	2
12707	54123	65.033569389969	2
12707	54489	65.353038390916	7
12707	54549	65.401494565512	5
12707	55460	66.111492351702	7
12707	55811	66.411492351702	3
12707	56955	67.418127214849	9
12707	57408	67.842726586363	3
12707	57824	68.252536976832	4
12707	58006	68.415335248538	5
12707	58153	68.545870835044	3
12707	58163	68.555816629509	2
12707	58882	69.158389551728	7
12707	59589	69.758389551728	5
12707	60520	70.560097657022	8
12707	61273	71.240237291119	5
12707	62313	72.149967918704	8
12707	62331	72.171321266567	8
12707	62484	72.278393612851	20
12707	62892	72.578953490934	2
12707	63098	72.752286030552	3
12707	63346	72.961777099237	1
12707	63599	73.171468693382	2
12707	63832	73.371468693382	1
12707	64449	73.884946256629	4
12707	65827	75.003091676401	10
12707	65924	75.097486012097	2
12707	66074	75.22809931804	2
12707	66179	75.311898737947	2
12707	66463	75.532137360985	2
12707	66779	75.740132616516	2
12707	67787	76.540132616516	8
12707	68289	76.942655071874	5
12707	69578	77.942655071874	10
12707	69899	78.153096260347	1
12707	70119	78.285804205046	1
12707	70759	78.788878247409	5
12707	71085	79.088878247409	2
12707	72413	80.363399329245	8
12707	72566	80.563399329245	1
12707	72769	80.765962893479	1
12707	73510	81.368684888235	8
12707	74227	82.005803976739	3
12707	74569	82.305882920311	2
12707	75185	82.813148756464	5
12707	75413	83.013148756464	1
12707	76572	84.018681585864	10
12707	76777	84.225291743945	1
12707	77040	84.440902510422	1
12707	77304	84.649434325421	2
12707	77751	85.049434325421	3
12707	78192	85.456350450483	4
12707	78269	85.541221328241	3
12707	78483	85.757087106371	2
12707	79003	86.157470758663	4
12707	79831	86.857470758663	7
12707	80464	87.360625359582	4
12707	81027	87.861318280484	3
12707	81487	88.26804967993	9
12707	81600	88.363483071868	4
12707	81955	88.669295463585	2
12707	82031	88.752152168681	3
12707	82400	89.058578614923	3
12707	82886	89.458578614923	3
12707	84061	90.465121540275	11
12707	84275	90.66531446406	1
12707	85610	91.666823804027	11
12707	86029	91.975657699122	3
12707	86093	91.993616328243	4
12707	86849	92.70308033119	7
12707	87186	93.00308033119	2
12707	87349	93.105818288058	0
12707	87370	93.110101671193	0
12707	87708	93.413932797864	2
12707	87719	93.419930042659	2
12707	88443	93.914972278854	5
12707	88459	93.928715922084	4
12707	88817	94.214786580394	4
12707	88827	94.217672226662	2
12707	89470	94.817772226762	7
12707	89850	95.217772226762	3
12707	90108	95.424575439006	2
12707	90385	95.64759559066	2
12707	90412	95.654575616905	0
12707	91570	96.754575616905	11
12707	92139	97.164407379701	4
12707	92381	97.357542295662	6
12707	92651	97.566822240134	1
12707	92787	97.66636144237	4
12707	93329	98.171360173258	5
12707	93751	98.571360173258	3
12707	94744	99.271460173358	7
12707	95355	99.871460173358	5
12707	95810	100.271496563905	4
12707	96372	100.682656132308	3
12707	96668	100.882756132408	2
12707	97252	101.282756132408	3
12707	98040	101.789267432337	4
12707	98071	101.801128568129	3
12707	98428	102.041158720748	11
12707	98630	102.197043444052	4
12707	98779	102.310542578842	4
12707	98783	102.313814528084	4
12707	99487	102.813914528184	7
12707	100555	103.69302691598	4
12707	100806	103.901376242256	1
12707	100935	104.013914528184	12
12707	101050	104.108188011599	1
12707	101176	104.221369740397	1
12707	101835	104.722229732605	6
12707	102316	105.122229732605	3
12707	102687	105.438421122826	2
12707	102887	105.63913284672	1
12707	103056	105.81484116107	3
12707	103545	106.222284704102	4
12707	104462	107.022284704102	7
12707	104767	107.225418791241	1
12707	105048	107.436791321421	1
12707	105975	108.33963576178	10
12707	106239	108.53963576178	1
12707	107345	109.540355188773	11
12707	107646	109.842139356821	2
12707	108158	110.249678319441	5
12707	109069	110.949678319441	6
12707	109261	111.119634571599	4
12707	109530	111.355805305784	3
12707	109585	111.420313364639	2
12707	109589	111.421221136063	2
12707	109946	111.723019791041	3
12707	110773	112.358628454407	4
12707	111375	112.863162966715	5
12707	111883	113.371953748164	2
12707	111977	113.463162966715	5
12707	112313	113.764529544815	2
12707	112725	114.06509058226	2
12707	113011	114.280843144969	9
12707	114568	115.480943145069	15
12707	115714	116.48741529239	9
12707	115963	116.700327776999	1
12707	116281	117.005321946924	2
12707	117408	118.011819682137	10
12707	117705	118.311819682137	2
12707	117908	118.515083932945	1
12707	118572	119.018351802412	4
12707	118629	119.091853564046	4
12707	118921	119.301304342566	2
12707	120017	120.378320828182	6
12707	120063	120.401304342566	10
12707	121078	121.30230037994	10
12707	121310	121.50230037994	1
12707	121868	122.010853409922	5
12707	122694	122.72041245109	6
12707	123353	123.222208567709	4
12707	123804	123.541344136406	7
12707	123886	123.625543199437	3
12707	124521	124.130418728768	5
12707	125174	124.730418728768	5
12707	126536	125.733160691271	10
12707	127310	126.358844870776	16
12707	127538	126.542517707923	8
12707	127698	126.662839940765	3
12707	127863	126.803054026055	3
12707	128005	126.903767097218	1
12707	129327	127.903767097218	9
12707	130148	128.509198597197	5
12707	130226	128.547296410615	5
12707	130662	128.915475159839	4
12707	131193	129.352988996289	7
12707	131398	129.518900802738	5
12707	131406	129.520881188292	5
12707	131456	129.553545702486	1
12707	133345	131.062355315191	16
12707	134266	131.862355315191	8
12707	134672	132.26665862118	3
12707	135282	132.786948371488	4
12707	135641	133.094064972661	3
12707	135837	133.294064972661	1
12707	136058	133.505815407716	1
12707	136717	134.105915407816	6
12707	137345	134.705915407816	5
12707	137921	135.612382439594	9
12707	137984	135.818937552704	1
12708	29	20.0000000001	1
12708	398	20.5000000001	0.5
12708	646	20.909142713649	0.625
12708	989	21.316548961207	0.5
12708	1301	21.620175829496	0.75
12708	1489	21.811406776129	0.75
12708	1753	22.017337431152	0.75
12708	1983	22.217337431152	0.875
12708	2585	22.718192687256	0.375
12708	2805	22.833442432102	0.75
12708	3050	23.023644120737	0.75
12708	3199	23.136262093178	0.875
12708	3720	23.528628629061	0.25
12708	4187	23.835436771259	0.625
12708	4696	24.235436771259	0.625
12708	4920	24.437870377191	0.875
12708	5778	25.158009530673	0.25
12708	6191	25.46290242755	0.75
12708	6287	25.554272590493	0.25
12708	6538	25.767975058363	0.75
12708	6893	25.968075058463	0.75
12708	7156	26.168075058463	0.875
12708	7601	26.574146188609	0.625
12708	9012	27.57139782645	0
12708	9971	28.377923278044	0
12708	10397	28.777923278044	0.5
12708	10928	29.285606398723	0.5
12708	11239	29.591335721887	0.75
12708	11596	29.897323846235	0.75
12708	12197	30.419009177485	0.5
12708	13125	31.126852329815	0.125
12708	13695	31.526852329815	0.625
12708	13970	31.735534938838	0.875
12708	14023	31.799406447782	0.875
12708	14268	32.001125387424	0.75
12708	14584	32.301125387424	0.75
12708	15140	32.8031596498	0.5
12708	15295	32.907688569339	0.875
12708	16168	33.507688569339	0.125
12708	16876	34.011234436839	0.375
12708	17453	34.41940912663	0.5
12708	17839	34.71940912663	0.75
12708	18317	35.120218484282	0.625
12708	18574	35.350750173637	0.75
12708	19359	36.053188964721	0.125
12708	20776	37.353188964721	-0.625
12708	20956	37.557532175708	0.875
12708	21316	37.903112129114	0.75
12708	22015	38.407414134413	0.375
12708	23423	39.524406304762	0.5
12708	23708	39.730470517626	0.77777777612209
12708	24131	40.130470517626	0.625
12708	24682	40.637353254965	0.5
12708	24684	40.6373722478	0.5
12708	24934	40.839613640701	0.875
12708	25283	41.143480242664	0.5
12708	26198	41.943480242664	0
12708	26498	42.143580242764	0.75
12708	28058	43.543580242764	-0.625
12708	28344	43.749588260869	-0.125
12708	29556	44.649688260969	-0.375
12708	30066	45.057881230816	0.625
12708	31062	45.86780402074	0.125
12708	32570	47.16790402084	-0.875
12708	33081	47.56790402084	0.625
12708	33942	48.173599353184	0.125
12708	34383	48.473599353184	0.75
12708	35033	48.973699353284	0.375
12708	35478	49.373699353284	0.5
12708	35720	49.582017918294	0.875
12708	36494	50.12344481623	0.875
12708	36992	50.523656620031	0.5
12708	38594	52.023656620031	-1.125
12708	39658	52.929275246473	0
12708	40001	53.230938761717	0.75
12708	40359	53.538584415626	0.625
12708	40915	54.038584415626	0.5
12708	41504	54.446833036837	0.5
12708	41806	54.646833036837	0.875
12708	42366	55.155533079429	0.375
12708	42971	55.664300438797	0.25
12708	43251	55.964300438797	0.75
12708	43606	56.273869794707	0.75
12708	43869	56.473969794807	0.75
12708	44659	57.273969794807	0.125
12708	45232	57.782030529465	0.5
12708	45575	58.094254718215	0.625
12708	46378	58.69909118479	0
12708	46399	58.744832533027	0.125
12708	47023	59.252473005982	0.375
12708	47615	59.752473005982	0.5
12708	48057	60.05250600623	0.75
12708	49003	60.860510437346	0
12708	49704	61.460510437346	0.375
12708	50234	61.864141954814	0.625
12708	50712	62.274548009495	0.625
12708	50911	62.407084971304	0.625
12708	52540	63.810258125775	-0.875
12708	53612	64.610258125775	0
12708	53891	64.826012298992	0.75
12708	54123	65.033569389969	0.75
12708	54489	65.353038390916	0.125
12708	54549	65.401494565512	0.375
12708	55460	66.111492351702	0.125
12708	55811	66.411492351702	0.625
12708	56955	67.418127214849	-0.125
12708	57408	67.842726586363	0.625
12708	57824	68.252536976832	0.5
12708	58006	68.415335248538	0.375
12708	58153	68.545870835044	0.625
12708	58163	68.555816629509	0.75
12708	58882	69.158389551728	0.125
12708	59589	69.758389551728	0.375
12708	60520	70.560097657022	0
12708	61273	71.240237291119	0.375
12708	62313	72.149967918704	0
12708	62331	72.171321266567	0
12708	62484	72.278393612851	-1.5
12708	62892	72.578953490934	0.75
12708	63098	72.752286030552	0.625
12708	63346	72.961777099237	0.875
12708	63599	73.171468693382	0.75
12708	63832	73.371468693382	0.875
12708	64449	73.884946256629	0.5
12708	65827	75.003091676401	-0.25
12708	65924	75.097486012097	0.75
12708	66074	75.22809931804	0.75
12708	66179	75.311898737947	0.75
12708	66463	75.532137360985	0.75
12708	66779	75.740132616516	0.75
12708	67787	76.540132616516	0
12708	68289	76.942655071874	0.375
12708	69578	77.942655071874	-0.25
12708	69899	78.153096260347	0.875
12708	70119	78.285804205046	0.875
12708	70759	78.788878247409	0.375
12708	71085	79.088878247409	0.75
12708	72413	80.363399329245	0
12708	72566	80.563399329245	0.875
12708	72769	80.765962893479	0.875
12708	73510	81.368684888235	0
12708	74227	82.005803976739	0.625
12708	74569	82.305882920311	0.75
12708	75185	82.813148756464	0.375
12708	75413	83.013148756464	0.875
12708	76572	84.018681585864	-0.25
12708	76777	84.225291743945	0.875
12708	77040	84.440902510422	0.875
12708	77304	84.649434325421	0.75
12708	77751	85.049434325421	0.625
12708	78192	85.456350450483	0.5
12708	78269	85.541221328241	0.625
12708	78483	85.757087106371	0.75
12708	79003	86.157470758663	0.5
12708	79831	86.857470758663	0.125
12708	80464	87.360625359582	0.5
12708	81027	87.861318280484	0.66666665673256
12708	81487	88.26804967993	-0.125
12708	81600	88.363483071868	0.5
12708	81955	88.669295463585	0.75
12708	82031	88.752152168681	0.625
12708	82400	89.058578614923	0.625
12708	82886	89.458578614923	0.625
12708	84061	90.465121540275	-0.375
12708	84275	90.66531446406	0.875
12708	85610	91.666823804027	-0.375
12708	86029	91.975657699122	0.625
12708	86093	91.993616328243	0.5
12708	86849	92.70308033119	0.125
12708	87186	93.00308033119	0.75
12708	87349	93.105818288058	1
12708	87370	93.110101671193	1
12708	87708	93.413932797864	0.75
12708	87719	93.419930042659	0.75
12708	88443	93.914972278854	0.375
12708	88459	93.928715922084	0.5
12708	88817	94.214786580394	0.5
12708	88827	94.217672226662	0.75
12708	89470	94.817772226762	0.125
12708	89850	95.217772226762	0.625
12708	90108	95.424575439006	0.75
12708	90385	95.64759559066	0.75
12708	90412	95.654575616905	1
12708	91570	96.754575616905	-0.375
12708	92139	97.164407379701	0.5
12708	92381	97.357542295662	0.25
12708	92651	97.566822240134	0.875
12708	92787	97.66636144237	0.5
12708	93329	98.171360173258	0.375
12708	93751	98.571360173258	0.625
12708	94744	99.271460173358	0.125
12708	95355	99.871460173358	0.375
12708	95810	100.271496563905	0.5
12708	96372	100.682656132308	0.625
12708	96668	100.882756132408	0.75
12708	97252	101.282756132408	0.625
12708	98040	101.789267432337	0.5
12708	98071	101.801128568129	0.625
12708	98428	102.041158720748	-0.375
12708	98630	102.197043444052	0.5
12708	98779	102.310542578842	0.5
12708	98783	102.313814528084	0.5
12708	99487	102.813914528184	0.125
12708	100555	103.69302691598	0.5
12708	100806	103.901376242256	0.875
12708	100935	104.013914528184	-0.5
12708	101050	104.108188011599	0.875
12708	101176	104.221369740397	0.875
12708	101835	104.722229732605	0.25
12708	102316	105.122229732605	0.625
12708	102687	105.438421122826	0.75
12708	102887	105.63913284672	0.875
12708	103056	105.81484116107	0.625
12708	103545	106.222284704102	0.5
12708	104462	107.022284704102	0.125
12708	104767	107.225418791241	0.875
12708	105048	107.436791321421	0.875
12708	105975	108.33963576178	-0.25
12708	106239	108.53963576178	0.875
12708	107345	109.540355188773	-0.375
12708	107646	109.842139356821	0.75
12708	108158	110.249678319441	0.375
12708	109069	110.949678319441	0.25
12708	109261	111.119634571599	0.5
12708	109530	111.355805305784	0.625
12708	109585	111.420313364639	0.75
12708	109589	111.421221136063	0.75
12708	109946	111.723019791041	0.625
12708	110773	112.358628454407	0.5
12708	111375	112.863162966715	0.375
12708	111883	113.371953748164	0.75
12708	111977	113.463162966715	0.375
12708	112313	113.764529544815	0.75
12708	112725	114.06509058226	0.75
12708	113011	114.280843144969	-0.125
12708	114568	115.480943145069	-0.875
12708	115714	116.48741529239	-0.125
12708	115963	116.700327776999	0.875
12708	116281	117.005321946924	0.75
12708	117408	118.011819682137	-0.25
12708	117705	118.311819682137	0.75
12708	117908	118.515083932945	0.875
12708	118572	119.018351802412	0.5
12708	118629	119.091853564046	0.5
12708	118921	119.301304342566	0.75
12708	120017	120.378320828182	0.25
12708	120063	120.401304342566	-0.25
12708	121078	121.30230037994	-0.25
12708	121310	121.50230037994	0.875
12708	121868	122.010853409922	0.375
12708	122694	122.72041245109	0.25
12708	123353	123.222208567709	0.5
12708	123804	123.541344136406	0.125
12708	123886	123.625543199437	0.625
12708	124521	124.130418728768	0.375
12708	125174	124.730418728768	0.375
12708	126536	125.733160691271	-0.25
12708	127310	126.358844870776	-1
12708	127538	126.542517707923	0
12708	127698	126.662839940765	0.625
12708	127863	126.803054026055	0.625
12708	128005	126.903767097218	0.875
12708	129327	127.903767097218	-0.125
12708	130148	128.509198597197	0.375
12708	130226	128.547296410615	0.375
12708	130662	128.915475159839	0.5
12708	131193	129.352988996289	0.125
12708	131398	129.518900802738	0.375
12708	131406	129.520881188292	0.375
12708	131456	129.553545702486	0.875
12708	133345	131.062355315191	-1
12708	134266	131.862355315191	0
12708	134672	132.26665862118	0.625
12708	135282	132.786948371488	0.5
12708	135641	133.094064972661	0.625
12708	135837	133.294064972661	0.875
12708	136058	133.505815407716	0.875
12708	136717	134.105915407816	0.25
12708	137345	134.705915407816	0.375
12708	137921	135.612382439594	-0.125
12708	137984	135.818937552704	0.875
12709	29	20.0000000001	0
12709	398	20.5000000001	0.5
12709	646	20.909142713649	0.4
12709	989	21.316548961207	0.4
12709	1301	21.620175829496	0.3
12709	1489	21.811406776129	0.3
12709	1753	22.017337431152	0.2
12709	1983	22.217337431152	0.2
12709	2585	22.718192687256	0.5
12709	2805	22.833442432102	0.3
12709	3050	23.023644120737	0.3
12709	3199	23.136262093178	0.2
12709	3720	23.528628629061	0.5
12709	4187	23.835436771259	0.3
12709	4696	24.235436771259	0.4
12709	4920	24.437870377191	0.2
12709	5778	25.158009530673	0.7
12709	6191	25.46290242755	0.3
12709	6287	25.554272590493	0.6
12709	6538	25.767975058363	0.3
12709	6893	25.968075058463	0.2
12709	7156	26.168075058463	0.2
12709	7601	26.574146188609	0.4
12709	9012	27.57139782645	0.9
12709	9971	28.377923278044	0.8
12709	10397	28.777923278044	0.4
12709	10928	29.285606398723	0.5
12709	11239	29.591335721887	0.3
12709	11596	29.897323846235	0.3
12709	12197	30.419009177485	0.5
12709	13125	31.126852329815	0.7
12709	13695	31.526852329815	0.4
12709	13970	31.735534938838	0.2
12709	14023	31.799406447782	0.2
12709	14268	32.001125387424	0.2
12709	14584	32.301125387424	0.3
12709	15140	32.8031596498	0.5
12709	15295	32.907688569339	0.1
12709	16168	33.507688569339	0.6
12709	16876	34.011234436839	0.5
12709	17453	34.41940912663	0.4
12709	17839	34.71940912663	0.3
12709	18317	35.120218484282	0.4
12709	18574	35.350750173637	0.3
12709	19359	36.053188964721	0.7
12709	20776	37.353188964721	1.3
12709	20956	37.557532175708	0.2
12709	21316	37.903112129114	0.3
12709	22015	38.407414134413	0.5
12709	23423	39.524406304762	0.5
12709	23708	39.730470517626	0.2
12709	24131	40.130470517626	0.4
12709	24682	40.637353254965	0.5
12709	24684	40.6373722478	0.5
12709	24934	40.839613640701	0.2
12709	25283	41.143480242664	0.3
12709	26198	41.943480242664	0.8
12709	26498	42.143580242764	0.2
12709	28058	43.543580242764	1.4
12709	28344	43.749588260869	0.8
12709	29556	44.649688260969	0.9
12709	30066	45.057881230816	0.4
12709	31062	45.86780402074	0.8
12709	32570	47.16790402084	1.3
12709	33081	47.56790402084	0.4
12709	33942	48.173599353184	0.6
12709	34383	48.473599353184	0.3
12709	35033	48.973699353284	0.5
12709	35478	49.373699353284	0.4
12709	35720	49.582017918294	0.2
12709	36494	50.12344481623	0.2
12709	36992	50.523656620031	0.4
12709	38594	52.023656620031	1.5
12709	39658	52.929275246473	0.9
12709	40001	53.230938761717	0.3
12709	40359	53.538584415626	0.3
12709	40915	54.038584415626	0.5
12709	41504	54.446833036837	0.4
12709	41806	54.646833036837	0.2
12709	42366	55.155533079429	0.5
12709	42971	55.664300438797	0.5
12709	43251	55.964300438797	0.3
12709	43606	56.273869794707	0.3
12709	43869	56.473969794807	0.2
12709	44659	57.273969794807	0.8
12709	45232	57.782030529465	0.5
12709	45575	58.094254718215	0.3
12709	46378	58.69909118479	0.6
12709	46399	58.744832533027	0.8
12709	47023	59.252473005982	0.5
12709	47615	59.752473005982	0.5
12709	48057	60.05250600623	0.3
12709	49003	60.860510437346	0.8
12709	49704	61.460510437346	0.6
12709	50234	61.864141954814	0.4
12709	50712	62.274548009495	0.4
12709	50911	62.407084971304	0.4
12709	52540	63.810258125775	1.4
12709	53612	64.610258125775	0.8
12709	53891	64.826012298992	0.2
12709	54123	65.033569389969	0.2
12709	54489	65.353038390916	0.7
12709	54549	65.401494565512	0.5
12709	55460	66.111492351702	0.7
12709	55811	66.411492351702	0.3
12709	56955	67.418127214849	1
12709	57408	67.842726586363	0.4
12709	57824	68.252536976832	0.4
12709	58006	68.415335248538	0.5
12709	58153	68.545870835044	0.4
12709	58163	68.555816629509	0.3
12709	58882	69.158389551728	0.6
12709	59589	69.758389551728	0.6
12709	60520	70.560097657022	0.8
12709	61273	71.240237291119	0.6
12709	62313	72.149967918704	0.9
12709	62331	72.171321266567	0.7
12709	62484	72.278393612851	1.7
12709	62892	72.578953490934	0.3
12709	63098	72.752286030552	0.4
12709	63346	72.961777099237	0.2
12709	63599	73.171468693382	0.2
12709	63832	73.371468693382	0.2
12709	64449	73.884946256629	0.5
12709	65827	75.003091676401	1.1
12709	65924	75.097486012097	0.3
12709	66074	75.22809931804	0.3
12709	66179	75.311898737947	0.3
12709	66463	75.532137360985	0.3
12709	66779	75.740132616516	0.2
12709	67787	76.540132616516	0.8
12709	68289	76.942655071874	0.4
12709	69578	77.942655071874	1
12709	69899	78.153096260347	0.2
12709	70119	78.285804205046	0.2
12709	70759	78.788878247409	0.5
12709	71085	79.088878247409	0.3
12709	72413	80.363399329245	0.8
12709	72566	80.563399329245	0.2
12709	72769	80.765962893479	0.2
12709	73510	81.368684888235	0.6
12709	74227	82.005803976739	0.4
12709	74569	82.305882920311	0.3
12709	75185	82.813148756464	0.5
12709	75413	83.013148756464	0.2
12709	76572	84.018681585864	1
12709	76777	84.225291743945	0.2
12709	77040	84.440902510422	0.2
12709	77304	84.649434325421	0.2
12709	77751	85.049434325421	0.4
12709	78192	85.456350450483	0.4
12709	78269	85.541221328241	0.4
12709	78483	85.757087106371	0.3
12709	79003	86.157470758663	0.4
12709	79831	86.857470758663	0.7
12709	80464	87.360625359582	0.5
12709	81027	87.861318280484	0.4
12709	81487	88.26804967993	0.9
12709	81600	88.363483071868	0.5
12709	81955	88.669295463585	0.3
12709	82031	88.752152168681	0.4
12709	82400	89.058578614923	0.3
12709	82886	89.458578614923	0.4
12709	84061	90.465121540275	1
12709	84275	90.66531446406	0.2
12709	85610	91.666823804027	1
12709	86029	91.975657699122	0.3
12709	86093	91.993616328243	0.5
12709	86849	92.70308033119	0.7
12709	87186	93.00308033119	0.3
12709	87349	93.105818288058	0.1
12709	87370	93.110101671193	0.1