version 2
run Stability-110-20130526-18:54:30-1898
attr configname Stability
attr datetime 20130526-18:54:30
attr experiment Stability
attr inifile omnetpp.ini
attr iterationvars $0=1e-5
attr iterationvars2 "$0=1e-5, $repetition=0"
attr measurement $0=1e-5
attr network Network
attr processid 1898
attr repetition 0
attr replication #0
attr resultdir results
attr runnumber 110
attr seedset 110

vector 10766  Network.churner  inGoingSizeSig:vector  ETV
vector 10676  Network.dyn_peer[2]  lookupHopsSig:vector  ETV
vector 10677  Network.dyn_peer[2]  lookupStabilitySig:vector  ETV
vector 10678  Network.dyn_peer[2]  lookupTimeSig:vector  ETV
vector 10682  Network.dyn_peer[4]  lookupHopsSig:vector  ETV
vector 10683  Network.dyn_peer[4]  lookupStabilitySig:vector  ETV
vector 10684  Network.dyn_peer[4]  lookupTimeSig:vector  ETV
vector 10736  Network.dyn_peer[22]  lookupHopsSig:vector  ETV
vector 10737  Network.dyn_peer[22]  lookupStabilitySig:vector  ETV
vector 10738  Network.dyn_peer[22]  lookupTimeSig:vector  ETV
vector 10673  Network.dyn_peer[1]  lookupHopsSig:vector  ETV
vector 10674  Network.dyn_peer[1]  lookupStabilitySig:vector  ETV
vector 10675  Network.dyn_peer[1]  lookupTimeSig:vector  ETV
vector 10679  Network.dyn_peer[3]  lookupHopsSig:vector  ETV
vector 10680  Network.dyn_peer[3]  lookupStabilitySig:vector  ETV
vector 10681  Network.dyn_peer[3]  lookupTimeSig:vector  ETV
vector 10697  Network.dyn_peer[9]  lookupHopsSig:vector  ETV
vector 10698  Network.dyn_peer[9]  lookupStabilitySig:vector  ETV
vector 10699  Network.dyn_peer[9]  lookupTimeSig:vector  ETV
vector 10706  Network.dyn_peer[12]  lookupHopsSig:vector  ETV
vector 10707  Network.dyn_peer[12]  lookupStabilitySig:vector  ETV
vector 10708  Network.dyn_peer[12]  lookupTimeSig:vector  ETV
vector 10727  Network.dyn_peer[19]  lookupHopsSig:vector  ETV
vector 10728  Network.dyn_peer[19]  lookupStabilitySig:vector  ETV
vector 10729  Network.dyn_peer[19]  lookupTimeSig:vector  ETV
vector 10763  Network.dyn_peer[31]  lookupHopsSig:vector  ETV
vector 10764  Network.dyn_peer[31]  lookupStabilitySig:vector  ETV
vector 10765  Network.dyn_peer[31]  lookupTimeSig:vector  ETV
vector 10685  Network.dyn_peer[5]  lookupHopsSig:vector  ETV
vector 10686  Network.dyn_peer[5]  lookupStabilitySig:vector  ETV
vector 10687  Network.dyn_peer[5]  lookupTimeSig:vector  ETV
vector 10688  Network.dyn_peer[6]  lookupHopsSig:vector  ETV
vector 10689  Network.dyn_peer[6]  lookupStabilitySig:vector  ETV
vector 10690  Network.dyn_peer[6]  lookupTimeSig:vector  ETV
vector 10700  Network.dyn_peer[10]  lookupHopsSig:vector  ETV
vector 10701  Network.dyn_peer[10]  lookupStabilitySig:vector  ETV
vector 10702  Network.dyn_peer[10]  lookupTimeSig:vector  ETV
vector 10703  Network.dyn_peer[11]  lookupHopsSig:vector  ETV
vector 10704  Network.dyn_peer[11]  lookupStabilitySig:vector  ETV
vector 10705  Network.dyn_peer[11]  lookupTimeSig:vector  ETV
vector 10709  Network.dyn_peer[13]  lookupHopsSig:vector  ETV
vector 10710  Network.dyn_peer[13]  lookupStabilitySig:vector  ETV
vector 10711  Network.dyn_peer[13]  lookupTimeSig:vector  ETV
vector 10715  Network.dyn_peer[15]  lookupHopsSig:vector  ETV
vector 10716  Network.dyn_peer[15]  lookupStabilitySig:vector  ETV
vector 10717  Network.dyn_peer[15]  lookupTimeSig:vector  ETV
vector 10718  Network.dyn_peer[16]  lookupHopsSig:vector  ETV
vector 10719  Network.dyn_peer[16]  lookupStabilitySig:vector  ETV
vector 10720  Network.dyn_peer[16]  lookupTimeSig:vector  ETV
vector 10724  Network.dyn_peer[18]  lookupHopsSig:vector  ETV
vector 10725  Network.dyn_peer[18]  lookupStabilitySig:vector  ETV
vector 10726  Network.dyn_peer[18]  lookupTimeSig:vector  ETV
vector 10733  Network.dyn_peer[21]  lookupHopsSig:vector  ETV
vector 10734  Network.dyn_peer[21]  lookupStabilitySig:vector  ETV
vector 10735  Network.dyn_peer[21]  lookupTimeSig:vector  ETV
vector 10739  Network.dyn_peer[23]  lookupHopsSig:vector  ETV
vector 10740  Network.dyn_peer[23]  lookupStabilitySig:vector  ETV
vector 10741  Network.dyn_peer[23]  lookupTimeSig:vector  ETV
vector 10742  Network.dyn_peer[24]  lookupHopsSig:vector  ETV
vector 10743  Network.dyn_peer[24]  lookupStabilitySig:vector  ETV
vector 10744  Network.dyn_peer[24]  lookupTimeSig:vector  ETV
vector 10748  Network.dyn_peer[26]  lookupHopsSig:vector  ETV
vector 10749  Network.dyn_peer[26]  lookupStabilitySig:vector  ETV
vector 10750  Network.dyn_peer[26]  lookupTimeSig:vector  ETV
vector 10757  Network.dyn_peer[29]  lookupHopsSig:vector  ETV
vector 10758  Network.dyn_peer[29]  lookupStabilitySig:vector  ETV
vector 10759  Network.dyn_peer[29]  lookupTimeSig:vector  ETV
vector 10670  Network.dyn_peer[0]  lookupHopsSig:vector  ETV
vector 10671  Network.dyn_peer[0]  lookupStabilitySig:vector  ETV
vector 10672  Network.dyn_peer[0]  lookupTimeSig:vector  ETV
vector 10712  Network.dyn_peer[14]  lookupHopsSig:vector  ETV
vector 10713  Network.dyn_peer[14]  lookupStabilitySig:vector  ETV
vector 10714  Network.dyn_peer[14]  lookupTimeSig:vector  ETV
vector 10730  Network.dyn_peer[20]  lookupHopsSig:vector  ETV
vector 10731  Network.dyn_peer[20]  lookupStabilitySig:vector  ETV
vector 10732  Network.dyn_peer[20]  lookupTimeSig:vector  ETV
vector 10745  Network.dyn_peer[25]  lookupHopsSig:vector  ETV
vector 10746  Network.dyn_peer[25]  lookupStabilitySig:vector  ETV
vector 10747  Network.dyn_peer[25]  lookupTimeSig:vector  ETV
vector 10754  Network.dyn_peer[28]  lookupHopsSig:vector  ETV
vector 10755  Network.dyn_peer[28]  lookupStabilitySig:vector  ETV
vector 10756  Network.dyn_peer[28]  lookupTimeSig:vector  ETV
vector 10691  Network.dyn_peer[7]  lookupHopsSig:vector  ETV
vector 10692  Network.dyn_peer[7]  lookupStabilitySig:vector  ETV
vector 10693  Network.dyn_peer[7]  lookupTimeSig:vector  ETV
vector 10694  Network.dyn_peer[8]  lookupHopsSig:vector  ETV
vector 10695  Network.dyn_peer[8]  lookupStabilitySig:vector  ETV
vector 10696  Network.dyn_peer[8]  lookupTimeSig:vector  ETV
vector 10751  Network.dyn_peer[27]  lookupHopsSig:vector  ETV
vector 10752  Network.dyn_peer[27]  lookupStabilitySig:vector  ETV
vector 10753  Network.dyn_peer[27]  lookupTimeSig:vector  ETV
vector 10760  Network.dyn_peer[30]  lookupHopsSig:vector  ETV
vector 10761  Network.dyn_peer[30]  lookupStabilitySig:vector  ETV
vector 10762  Network.dyn_peer[30]  lookupTimeSig:vector  ETV
vector 10721  Network.dyn_peer[17]  lookupHopsSig:vector  ETV
vector 10722  Network.dyn_peer[17]  lookupStabilitySig:vector  ETV
vector 10723  Network.dyn_peer[17]  lookupTimeSig:vector  ETV
10670	281	20.30000001	3
10670	1566	21.80000001	14
10670	2080	22.20010002	4
10670	2614	22.708786583358	4
10670	3282	23.266210604609	3
10670	3761	23.666210604609	3
10670	4555	24.277958138517	6
10670	5411	25.089949875745	7
10670	5617	25.268979715211	7
10670	5862	25.499753154675	4
10670	6193	25.802579030548	4
10670	6383	26.002579030548	1
10670	6606	26.212223249391	1
10670	7039	26.6123190789	3
10670	8392	27.722377324903	11
10670	8620	27.922377324903	1
10670	9076	28.333687819151	3
10670	9414	28.637554837262	2
10670	10091	29.142785641245	4
10670	10300	29.307966587038	4
10670	10581	29.51461600535	2
10670	10857	29.717583996145	1
10670	11163	29.946244905704	7
10670	11194	29.990755820782	5
10670	11202	29.997416492016	14
10670	12040	30.697516502016	7
10670	12522	31.097516502016	3
10670	13122	31.602145784448	4
10670	13240	31.70878037228	4
10670	13547	32.015398275321	2
10670	13963	32.315498285321	3
10670	14334	32.615498285321	2
10670	15373	33.485192119687	4
10670	16820	34.686321433259	13
10670	17301	35.086321433259	3
10670	17729	35.503959860959	3
10670	18258	36.011949869772	4
10670	18341	36.083574425825	3
10670	18737	36.390384865973	3
10670	18998	36.595102082837	1
10670	19845	37.20253144784	6
10670	20093	37.40253144784	1
10670	21336	38.411400808183	10
10670	22780	39.515955366884	10
10670	24109	40.628514309723	10
10670	24714	41.170974464731	4
10670	24860	41.230081606483	5
10670	26528	42.532614346017	14
10670	27343	43.232614346017	6
10670	28092	43.83521923739	5
10670	28153	43.906883131963	5
10670	28567	44.208439763205	3
10670	28885	44.508439763205	2
10670	29488	45.011937335811	5
10670	30565	45.814772397749	9
10670	31047	46.214772397749	3
10670	31408	46.524032561596	2
10670	31838	46.82816458589	4
10670	32091	47.02816458589	1
10670	32928	47.839063556108	8
10670	35142	49.739163566108	20
10670	35714	50.239163566108	4
10670	36408	50.845411844569	5
10670	37321	51.651018436195	9
10670	37613	51.951018436195	2
10670	37719	52.059676560768	0
10670	37925	52.279157175782	1
10670	38933	53.279257185782	10
10670	39295	53.679257185782	3
10670	40059	54.465273774343	4
10670	40651	55.08287453791	13
10670	40780	55.17779516681	6
10670	40990	55.379290207824	3
10670	41116	55.484570530074	3
10670	41229	55.588136137575	1
10670	41728	56.042320458754	2
10670	41900	56.188136137575	5
10670	42090	56.350236647401	2
10670	42645	56.790011563291	5
10670	42669	56.8231614391	5
10670	43089	57.15619003089	8
10670	43651	57.557992431	4
10670	44667	58.357992431	9
10670	45504	59.111661751027	4
10670	45838	59.418280497001	2
10670	46121	59.619414760752	2
10670	46491	59.919414760752	3
10670	46865	60.2355444784	2
10670	47669	60.942235303078	7
10670	48407	61.547600823127	6
10670	48801	61.947600823127	3
10670	49585	62.65347602403	6
10670	50215	63.257709629013	5
10670	50484	63.500895779459	7
10670	50679	63.660906678851	3
10670	50697	63.676734938383	6
10670	51050	63.973246398759	2
10670	51057	63.977052459946	3
10670	51095	64.010676343268	4
10670	52348	65.119864972442	12
10670	52574	65.319864972442	1
10670	52855	65.523599738491	1
10670	53195	65.824223562337	2
10670	54253	66.732581878469	8
10670	54405	66.839576949837	0
10670	54729	67.147807904138	2
10670	54910	67.323287452909	7
10670	54944	67.350796135187	3
10670	55187	67.554001889641	2
10670	56229	68.454001889641	9
10670	57212	69.363335343054	9
10670	57395	69.563335343054	1
10670	58226	70.27316252366	5
10670	58847	70.769919576481	12
10670	58984	70.879360208209	7
10670	59123	70.976386361684	1
10670	59269	71.096370403266	1
10670	60348	71.79956428647	7
10670	61045	72.39956428647	5
10670	61669	73.008077305994	5
10670	62001	73.310955084423	2
10670	63508	74.615473510786	15
10670	63725	74.815473510786	1
10670	65339	76.120717663748	14
10670	66587	77.227286798534	12
10670	67245	77.828697567162	5
10670	67547	78.134391791218	2
10670	68345	78.735247285559	6
10670	68531	78.935247285559	1
10670	68910	79.244303041696	3
10670	69514	79.844403051696	6
10670	69999	80.344898959716	4
10670	70110	80.454591501442	1
10670	70536	80.859590251511	3
10670	71087	81.359822540709	4
10670	71211	81.462011735105	1
10670	72394	82.262011735105	9
10670	73172	82.868913375072	6
10670	73482	83.168913375072	2
10670	73690	83.370319100877	1
10670	75848	84.887961716002	16
10670	75859	84.929289269631	15
10670	76613	85.438880622819	5
10670	77311	85.938880622819	5
10670	78034	86.554671147564	5
10670	78689	87.060990821905	4
10670	78961	87.269265453111	2
10670	80056	88.368973998854	2
10670	80454	88.761208059987	2
10670	80886	89.070534410265	8
10670	82188	90.070634420265	11
10670	82953	90.63084982709	2
10670	83331	90.938044402522	2
10670	83361	90.970634420265	8
10670	83845	91.354979227758	3
10670	84172	91.660162978414	2
10670	84368	91.840926627562	9
10670	84487	91.970817657036	9
10670	85992	93.271707890876	14
10670	86271	93.571707890876	2
10670	86623	93.87932879873	2
10670	86847	94.081070276777	2
10670	87060	94.281070276777	2
10670	87307	94.483766032896	1
10670	87712	94.78687811957	2
10670	87798	94.862055190366	2
10670	88323	95.268835034231	5
10670	88486	95.391464405057	5
10670	88522	95.423487463464	4
10670	89473	96.124866932736	8
10670	89825	96.424866932736	2
10670	90851	97.232124108861	8
10670	91004	97.399251907575	8
10670	91500	97.80179850707	3
10670	91762	98.003655884512	5
10670	92579	98.711957348479	8
10670	93592	99.411957348479	6
10670	93959	99.721814559948	2
10670	94292	100.023730178655	2
10670	94575	100.28665942389	2
10670	95110	100.690833357692	5
10670	95806	101.290833357692	5
10670	96461	101.823293561047	4
10670	96739	101.993654302515	7
10670	96818	102.030770680351	1
10670	97226	102.338496913842	3
10670	97449	102.538496913842	1
10670	98034	103.041993563237	4
10670	98257	103.348876510196	2
10670	98767	103.861767659883	5
10670	99360	104.372290216972	4
10670	99746	104.674168952509	4
10670	100141	105.074168952509	3
10670	100715	105.579986617892	4
10670	101004	105.880131605151	2
10670	101408	106.180719406525	3
10670	102148	106.780719406525	6
10670	103279	107.690452594883	9
10670	104102	108.493295798192	8
10670	104898	109.193295798192	6
10670	105543	109.698656890571	4
10670	105947	110.031849991836	4
10670	106061	110.100185477232	4
10670	106432	110.435170732178	3
10670	108276	112.035270742178	19
10670	108984	112.642206987209	5
10670	109839	113.245339882144	6
10670	110249	113.611438070376	9
10670	110513	113.815758518398	1
10670	110521	113.818430340766	1
10670	111354	114.55276684393	12
10670	111536	114.725072278416	9
10670	111669	114.862454627482	2
10670	112002	115.070140703031	2
10670	112366	115.370140703031	3
10670	112749	115.673937517478	2
10670	113548	116.283475709207	8
10670	114121	116.683475709207	3
10670	114896	117.38746698679	6
10670	115102	117.543673230221	2
10670	115282	117.647859439137	1
10670	117503	119.333943744834	9
10670	118154	119.933943744834	5
10670	118392	120.139487177425	1
10670	118973	120.640006848143	4
10670	119060	120.696083680585	2
10670	119613	121.258864088351	3
10670	119708	121.305116344205	6
10670	119898	121.460565125515	1
10670	120320	121.763770841687	3
10670	121068	122.363770841687	5
10670	121345	122.563870851687	3
10670	122469	123.61489317857	5
10670	122892	124.022902448224	4
10670	123775	124.722902448224	7
10670	124052	124.924231684424	1
10670	124115	124.999150742329	1
10670	124485	125.233199871163	3
10670	125125	125.701520775204	7
10670	125786	126.202653852688	5
10670	126343	126.562668761329	2
10670	126374	126.602653852688	3
10670	126649	126.807065309789	1
10670	126658	126.808721733834	1
10670	126754	126.87175432257	2
10670	127365	127.271983906299	5
10670	128399	128.071983906299	7
10670	128812	128.38149284279	2
10670	129291	128.791435493515	3
10670	129534	128.991535503515	2
10670	129875	129.291535503515	2
10670	130595	129.894308207347	5
10670	130751	129.995408678005	1
10670	130791	130.029901595197	5
10670	130986	130.198671882633	1
10670	131140	130.320850301036	4
10670	131364	130.534296316127	4
10670	131587	130.734547990373	1
10670	131683	130.823049818214	4
10670	131962	131.030036073335	2
10670	132821	131.730036073335	6
10670	133296	132.137480642696	3
10670	134250	132.937811351304	9
10670	134583	133.237811351304	2
10671	281	20.30000001	0.625
10671	1566	21.80000001	-0.75
10671	2080	22.20010002	0.5
10671	2614	22.708786583358	0.5
10671	3282	23.266210604609	0.625
10671	3761	23.666210604609	0.625
10671	4555	24.277958138517	0.25
10671	5411	25.089949875745	0.125
10671	5617	25.268979715211	0.125
10671	5862	25.499753154675	0.5
10671	6193	25.802579030548	0.5
10671	6383	26.002579030548	0.875
10671	6606	26.212223249391	0.875
10671	7039	26.6123190789	0.625
10671	8392	27.722377324903	-0.375
10671	8620	27.922377324903	0.875
10671	9076	28.333687819151	0.625
10671	9414	28.637554837262	0.75
10671	10091	29.142785641245	0.5
10671	10300	29.307966587038	0.5
10671	10581	29.51461600535	0.75
10671	10857	29.717583996145	0.875
10671	11163	29.946244905704	0.125
10671	11194	29.990755820782	0.375
10671	11202	29.997416492016	-0.75
10671	12040	30.697516502016	0.125
10671	12522	31.097516502016	0.625
10671	13122	31.602145784448	0.5
10671	13240	31.70878037228	0.5
10671	13547	32.015398275321	0.75
10671	13963	32.315498285321	0.625
10671	14334	32.615498285321	0.75
10671	15373	33.485192119687	0.5
10671	16820	34.686321433259	-0.625
10671	17301	35.086321433259	0.625
10671	17729	35.503959860959	0.625
10671	18258	36.011949869772	0.5
10671	18341	36.083574425825	0.625
10671	18737	36.390384865973	0.625
10671	18998	36.595102082837	0.875
10671	19845	37.20253144784	0.25
10671	20093	37.40253144784	0.875
10671	21336	38.411400808183	-0.25
10671	22780	39.515955366884	-0.25
10671	24109	40.628514309723	-0.25
10671	24714	41.170974464731	0.5
10671	24860	41.230081606483	0.375
10671	26528	42.532614346017	-0.75
10671	27343	43.232614346017	0.25
10671	28092	43.83521923739	0.375
10671	28153	43.906883131963	0.375
10671	28567	44.208439763205	0.625
10671	28885	44.508439763205	0.75
10671	29488	45.011937335811	0.375
10671	30565	45.814772397749	-0.125
10671	31047	46.214772397749	0.625
10671	31408	46.524032561596	0.75
10671	31838	46.82816458589	0.5
10671	32091	47.02816458589	0.875
10671	32928	47.839063556108	0
10671	35142	49.739163566108	-1.5
10671	35714	50.239163566108	0.5
10671	36408	50.845411844569	0.375
10671	37321	51.651018436195	-0.125
10671	37613	51.951018436195	0.75
10671	37719	52.059676560768	1
10671	37925	52.279157175782	0.875
10671	38933	53.279257185782	-0.25
10671	39295	53.679257185782	0.625
10671	40059	54.465273774343	0.5
10671	40651	55.08287453791	-0.625
10671	40780	55.17779516681	0.25
10671	40990	55.379290207824	0.625
10671	41116	55.484570530074	0.625
10671	41229	55.588136137575	0.875
10671	41728	56.042320458754	0.75
10671	41900	56.188136137575	0.375
10671	42090	56.350236647401	0.75
10671	42645	56.790011563291	0.375
10671	42669	56.8231614391	0.375
10671	43089	57.15619003089	0
10671	43651	57.557992431	0.5
10671	44667	58.357992431	-0.125
10671	45504	59.111661751027	0.5
10671	45838	59.418280497001	0.75
10671	46121	59.619414760752	0.75
10671	46491	59.919414760752	0.625
10671	46865	60.2355444784	0.75
10671	47669	60.942235303078	0.125
10671	48407	61.547600823127	0.25
10671	48801	61.947600823127	0.625
10671	49585	62.65347602403	0.25
10671	50215	63.257709629013	0.375
10671	50484	63.500895779459	0.125
10671	50679	63.660906678851	0.625
10671	50697	63.676734938383	0.25
10671	51050	63.973246398759	0.75
10671	51057	63.977052459946	0.625
10671	51095	64.010676343268	0.5
10671	52348	65.119864972442	-0.5
10671	52574	65.319864972442	0.875
10671	52855	65.523599738491	0.875
10671	53195	65.824223562337	0.75
10671	54253	66.732581878469	0
10671	54405	66.839576949837	1
10671	54729	67.147807904138	0.75
10671	54910	67.323287452909	0.125
10671	54944	67.350796135187	0.625
10671	55187	67.554001889641	0.75
10671	56229	68.454001889641	-0.125
10671	57212	69.363335343054	-0.125
10671	57395	69.563335343054	0.875
10671	58226	70.27316252366	0.375
10671	58847	70.769919576481	-0.5
10671	58984	70.879360208209	0.125
10671	59123	70.976386361684	0.875
10671	59269	71.096370403266	0.875
10671	60348	71.79956428647	0.125
10671	61045	72.39956428647	0.375
10671	61669	73.008077305994	0.375
10671	62001	73.310955084423	0.75
10671	63508	74.615473510786	-0.875
10671	63725	74.815473510786	0.875
10671	65339	76.120717663748	-0.75
10671	66587	77.227286798534	-0.5
10671	67245	77.828697567162	0.375
10671	67547	78.134391791218	0.75
10671	68345	78.735247285559	0.25
10671	68531	78.935247285559	0.875
10671	68910	79.244303041696	0.625
10671	69514	79.844403051696	0.25
10671	69999	80.344898959716	0.5
10671	70110	80.454591501442	0.875
10671	70536	80.859590251511	0.625
10671	71087	81.359822540709	0.5
10671	71211	81.462011735105	0.875
10671	72394	82.262011735105	-0.125
10671	73172	82.868913375072	0.25
10671	73482	83.168913375072	0.75
10671	73690	83.370319100877	0.875
10671	75848	84.887961716002	-1
10671	75859	84.929289269631	-0.875
10671	76613	85.438880622819	0.375
10671	77311	85.938880622819	0.375
10671	78034	86.554671147564	0.375
10671	78689	87.060990821905	0.5
10671	78961	87.269265453111	0.75
10671	80056	88.368973998854	0.75
10671	80454	88.761208059987	0.75
10671	80886	89.070534410265	0
10671	82188	90.070634420265	-0.375
10671	82953	90.63084982709	0.75
10671	83331	90.938044402522	0.75
10671	83361	90.970634420265	0
10671	83845	91.354979227758	0.625
10671	84172	91.660162978414	0.75
10671	84368	91.840926627562	-0.125
10671	84487	91.970817657036	-0.125
10671	85992	93.271707890876	-0.75
10671	86271	93.571707890876	0.75
10671	86623	93.87932879873	0.75
10671	86847	94.081070276777	0.75
10671	87060	94.281070276777	0.75
10671	87307	94.483766032896	0.875
10671	87712	94.78687811957	0.75
10671	87798	94.862055190366	0.77777777612209
10671	88323	95.268835034231	0.375
10671	88486	95.391464405057	0.375
10671	88522	95.423487463464	0.5
10671	89473	96.124866932736	0
10671	89825	96.424866932736	0.75
10671	90851	97.232124108861	0
10671	91004	97.399251907575	0
10671	91500	97.80179850707	0.625
10671	91762	98.003655884512	0.375
10671	92579	98.711957348479	0
10671	93592	99.411957348479	0.25
10671	93959	99.721814559948	0.75
10671	94292	100.023730178655	0.75
10671	94575	100.28665942389	0.75
10671	95110	100.690833357692	0.375
10671	95806	101.290833357692	0.375
10671	96461	101.823293561047	0.5
10671	96739	101.993654302515	0.125
10671	96818	102.030770680351	0.875
10671	97226	102.338496913842	0.625
10671	97449	102.538496913842	0.875
10671	98034	103.041993563237	0.5
10671	98257	103.348876510196	0.75
10671	98767	103.861767659883	0.375
10671	99360	104.372290216972	0.5
10671	99746	104.674168952509	0.5
10671	100141	105.074168952509	0.625
10671	100715	105.579986617892	0.5
10671	101004	105.880131605151	0.75
10671	101408	106.180719406525	0.625
10671	102148	106.780719406525	0.25
10671	103279	107.690452594883	-0.125
10671	104102	108.493295798192	0
10671	104898	109.193295798192	0.25
10671	105543	109.698656890571	0.5
10671	105947	110.031849991836	0.5
10671	106061	110.100185477232	0.5
10671	106432	110.435170732178	0.625
10671	108276	112.035270742178	-1.375
10671	108984	112.642206987209	0.375
10671	109839	113.245339882144	0.25
10671	110249	113.611438070376	-0.125
10671	110513	113.815758518398	0.875
10671	110521	113.818430340766	0.875
10671	111354	114.55276684393	-0.5
10671	111536	114.725072278416	-0.125
10671	111669	114.862454627482	0.75
10671	112002	115.070140703031	0.75
10671	112366	115.370140703031	0.625
10671	112749	115.673937517478	0.75
10671	113548	116.283475709207	0
10671	114121	116.683475709207	0.625
10671	114896	117.38746698679	0.25
10671	115102	117.543673230221	0.75
10671	115282	117.647859439137	0.875
10671	117503	119.333943744834	-0.125
10671	118154	119.933943744834	0.375
10671	118392	120.139487177425	0.875
10671	118973	120.640006848143	0.5
10671	119060	120.696083680585	0.75
10671	119613	121.258864088351	0.625
10671	119708	121.305116344205	0.25
10671	119898	121.460565125515	0.875
10671	120320	121.763770841687	0.625
10671	121068	122.363770841687	0.375
10671	121345	122.563870851687	0.625
10671	122469	123.61489317857	0.375
10671	122892	124.022902448224	0.5
10671	123775	124.722902448224	0.125
10671	124052	124.924231684424	0.875
10671	124115	124.999150742329	0.875
10671	124485	125.233199871163	0.625
10671	125125	125.701520775204	0.125
10671	125786	126.202653852688	0.375
10671	126343	126.562668761329	0.75
10671	126374	126.602653852688	0.625
10671	126649	126.807065309789	0.875
10671	126658	126.808721733834	0.875
10671	126754	126.87175432257	0.75
10671	127365	127.271983906299	0.375
10671	128399	128.071983906299	0.125
10671	128812	128.38149284279	0.75
10671	129291	128.791435493515	0.625
10671	129534	128.991535503515	0.75
10671	129875	129.291535503515	0.75
10671	130595	129.894308207347	0.375
10671	130751	129.995408678005	0.875
10671	130791	130.029901595197	0.375
10671	130986	130.198671882633	0.875
10671	131140	130.320850301036	0.5
10671	131364	130.534296316127	0.5
10671	131587	130.734547990373	0.875
10671	131683	130.823049818214	0.5
10671	131962	131.030036073335	0.75
10671	132821	131.730036073335	0.25
10671	133296	132.137480642696	0.625
10671	134250	132.937811351304	-0.125
10671	134583	133.237811351304	0.75
10672	281	20.30000001	0.3
10672	1566	21.80000001	1.5
10672	2080	22.20010002	0.4
10672	2614	22.708786583358	0.5
10672	3282	23.266210604609	0.3
10672	3761	23.666210604609	0.4
10672	4555	24.277958138517	0.6
10672	5411	25.089949875745	0.8
10672	5617	25.268979715211	0.8
10672	5862	25.499753154675	0.4
10672	6193	25.802579030548	0.3
10672	6383	26.002579030548	0.2
10672	6606	26.212223249391	0.2
10672	7039	26.6123190789	0.4
10672	8392	27.722377324903	1.1
10672	8620	27.922377324903	0.2
10672	9076	28.333687819151	0.4
10672	9414	28.637554837262	0.3
10672	10091	29.142785641245	0.5
10672	10300	29.307966587038	0.5
10672	10581	29.51461600535	0.2
10672	10857	29.717583996145	0.2
10672	11163	29.946244905704	0.8
10672	11194	29.990755820782	0.6
10672	11202	29.997416492016	1.4
10672	12040	30.697516502016	0.7
10672	12522	31.097516502016	0.4
10672	13122	31.602145784448	0.5
10672	13240	31.70878037228	0.5
10672	13547	32.015398275321	0.3
10672	13963	32.315498285321	0.3
10672	14334	32.615498285321	0.3
10672	15373	33.485192119687	0.5
10672	16820	34.686321433259	1.2
10672	17301	35.086321433259	0.4
10672	17729	35.503959860959	0.4
10672	18258	36.011949869772	0.5
10672	18341	36.083574425825	0.4
10672	18737	36.390384865973	0.3
10672	18998	36.595102082837	0.2
10672	19845	37.20253144784	0.6
10672	20093	37.40253144784	0.2
10672	21336	38.411400808183	1
10672	22780	39.515955366884	1.1
10672	24109	40.628514309723	1.1
10672	24714	41.170974464731	0.4
10672	24860	41.230081606483	0.6
10672	26528	42.532614346017	1.3
10672	27343	43.232614346017	0.7
10672	28092	43.83521923739	0.6
10672	28153	43.906883131963	0.6
10672	28567	44.208439763205	0.3
10672	28885	44.508439763205	0.3
10672	29488	45.011937335811	0.5
10672	30565	45.814772397749	0.8
10672	31047	46.214772397749	0.4
10672	31408	46.524032561596	0.3
10672	31838	46.82816458589	0.3
10672	32091	47.02816458589	0.2
10672	32928	47.839063556108	0.8
10672	35142	49.739163566108	1.9
10672	35714	50.239163566108	0.5
10672	36408	50.845411844569	0.6
10672	37321	51.651018436195	0.8
10672	37613	51.951018436195	0.3
10672	37719	52.059676560768	0.1
10672	37925	52.279157175782	0.2
10672	38933	53.279257185782	1
10672	39295	53.679257185782	0.4
10672	40059	54.465273774343	0.5
10672	40651	55.08287453791	1.4
10672	40780	55.17779516681	0.7
10672	40990	55.379290207824	0.4
10672	41116	55.484570530074	0.4
10672	41229	55.588136137575	0.1
10672	41728	56.042320458754	0.3
10672	41900	56.188136137575	0.6
10672	42090	56.350236647401	0.3
10672	42645	56.790011563291	0.6
10672	42669	56.8231614391	0.6
10672	43089	57.15619003089	0.8
10672	43651	57.557992431	0.4
10672	44667	58.357992431	0.8
10672	45504	59.111661751027	0.5
10672	45838	59.418280497001	0.3
10672	46121	59.619414760752	0.2
10672	46491	59.919414760752	0.3
10672	46865	60.2355444784	0.3
10672	47669	60.942235303078	0.7
10672	48407	61.547600823127	0.6
10672	48801	61.947600823127	0.4
10672	49585	62.65347602403	0.7
10672	50215	63.257709629013	0.6
10672	50484	63.500895779459	0.7
10672	50679	63.660906678851	0.4
10672	50697	63.676734938383	0.7
10672	51050	63.973246398759	0.3
10672	51057	63.977052459946	0.3
10672	51095	64.010676343268	0.5
10672	52348	65.119864972442	1.1
10672	52574	65.319864972442	0.2
10672	52855	65.523599738491	0.2
10672	53195	65.824223562337	0.3
10672	54253	66.732581878469	0.9
10672	54405	66.839576949837	0.1
10672	54729	67.147807904138	0.3
10672	54910	67.323287452909	0.8
10672	54944	67.350796135187	0.3
10672	55187	67.554001889641	0.2
10672	56229	68.454001889641	0.9
10672	57212	69.363335343054	0.9
10672	57395	69.563335343054	0.2
10672	58226	70.27316252366	0.6
10672	58847	70.769919576481	1.2
10672	58984	70.879360208209	0.6
10672	59123	70.976386361684	0.2
10672	59269	71.096370403266	0.2
10672	60348	71.79956428647	0.7
10672	61045	72.39956428647	0.6
10672	61669	73.008077305994	0.6
10672	62001	73.310955084423	0.3
10672	63508	74.615473510786	1.3
10672	63725	74.815473510786	0.2
10672	65339	76.120717663748	1.3
10672	66587	77.227286798534	1.1
10672	67245	77.828697567162	0.6
10672	67547	78.134391791218	0.3
10672	68345	78.735247285559	0.6
10672	68531	78.935247285559	0.2
10672	68910	79.244303041696	0.3
10672	69514	79.844403051696	0.6
10672	69999	80.344898959716	0.5
10672	70110	80.454591501442	0.1
10672	70536	80.859590251511	0.4
10672	71087	81.359822540709	0.5
10672	71211	81.462011735105	0.1
10672	72394	82.262011735105	0.8
10672	73172	82.868913375072	0.6
10672	73482	83.168913375072	0.3
10672	73690	83.370319100877	0.2
10672	75848	84.887961716002	1.5
10672	75859	84.929289269631	1.5
10672	76613	85.438880622819	0.5
10672	77311	85.938880622819	0.5
10672	78034	86.554671147564	0.6
10672	78689	87.060990821905	0.5
10672	78961	87.269265453111	0.2
10672	80056	88.368973998854	0.3
10672	80454	88.761208059987	0.3
10672	80886	89.070534410265	0.7
10672	82188	90.070634420265	1
10672	82953	90.63084982709	0.3
10672	83331	90.938044402522	0.3
10672	83361	90.970634420265	0.9
10672	83845	91.354979227758	0.4
10672	84172	91.660162978414	0.3
10672	84368	91.840926627562	0.9
10672	84487	91.970817657036	1
10672	85992	93.271707890876	1.3
10672	86271	93.571707890876	0.3
10672	86623	93.87932879873	0.3
10672	86847	94.081070276777	0.2
10672	87060	94.281070276777	0.2
10672	87307	94.483766032896	0.2
10672	87712	94.78687811957	0.3
10672	87798	94.862055190366	0.3
10672	88323	95.268835034231	0.5
10672	88486	95.391464405057	0.6
10672	88522	95.423487463464	0.5
10672	89473	96.124866932736	0.7
10672	89825	96.424866932736	0.3
10672	90851	97.232124108861	0.8
10672	91004	97.399251907575	0.9
10672	91500	97.80179850707	0.4
10672	91762	98.003655884512	0.6
10672	92579	98.711957348479	0.7
10672	93592	99.411957348479	0.7
10672	93959	99.721814559948	0.3
10672	94292	100.023730178655	0.3
10672	94575	100.28665942389	0.3
10672	95110	100.690833357692	0.4
10672	95806	101.290833357692	0.6
10672	96461	101.823293561047	0.5
10672	96739	101.993654302515	0.7
10672	96818	102.030770680351	0.2
10672	97226	102.338496913842	0.3
10672	97449	102.538496913842	0.2
10672	98034	103.041993563237	0.5
10672	98257	103.348876510196	0.3
10672	98767	103.861767659883	0.5
10672	99360	104.372290216972	0.5
10672	99746	104.674168952509	0.3
10672	100141	105.074168952509	0.4
10672	100715	105.579986617892	0.5
10672	101004	105.880131605151	0.3
10672	101408	106.180719406525	0.3
10672	102148	106.780719406525	0.6
10672	103279	107.690452594883	0.9
10672	104102	108.493295798192	0.8
10672	104898	109.193295798192	0.7
10672	105543	109.698656890571	0.5
10672	105947	110.031849991836	0.5
10672	106061	110.100185477232	0.4
10672	106432	110.435170732178	0.4