version 2
run Stability-67-20130526-18:51:32-1898
attr configname Stability
attr datetime 20130526-18:51:32
attr experiment Stability
attr inifile omnetpp.ini
attr iterationvars $0=1e0
attr iterationvars2 "$0=1e0, $repetition=7"
attr measurement $0=1e0
attr network Network
attr processid 1898
attr repetition 7
attr replication #7
attr resultdir results
attr runnumber 67
attr seedset 67

vector 6595  Network.churner  inGoingSizeSig:vector  ETV
vector 6502  Network.dyn_peer[1]  lookupHopsSig:vector  ETV
vector 6503  Network.dyn_peer[1]  lookupStabilitySig:vector  ETV
vector 6504  Network.dyn_peer[1]  lookupTimeSig:vector  ETV
vector 6511  Network.dyn_peer[4]  lookupHopsSig:vector  ETV
vector 6512  Network.dyn_peer[4]  lookupStabilitySig:vector  ETV
vector 6513  Network.dyn_peer[4]  lookupTimeSig:vector  ETV
vector 6544  Network.dyn_peer[15]  lookupHopsSig:vector  ETV
vector 6545  Network.dyn_peer[15]  lookupStabilitySig:vector  ETV
vector 6546  Network.dyn_peer[15]  lookupTimeSig:vector  ETV
vector 6556  Network.dyn_peer[19]  lookupHopsSig:vector  ETV
vector 6557  Network.dyn_peer[19]  lookupStabilitySig:vector  ETV
vector 6558  Network.dyn_peer[19]  lookupTimeSig:vector  ETV
vector 6568  Network.dyn_peer[23]  lookupHopsSig:vector  ETV
vector 6569  Network.dyn_peer[23]  lookupStabilitySig:vector  ETV
vector 6570  Network.dyn_peer[23]  lookupTimeSig:vector  ETV
vector 6577  Network.dyn_peer[26]  lookupHopsSig:vector  ETV
vector 6578  Network.dyn_peer[26]  lookupStabilitySig:vector  ETV
vector 6579  Network.dyn_peer[26]  lookupTimeSig:vector  ETV
vector 6586  Network.dyn_peer[29]  lookupHopsSig:vector  ETV
vector 6587  Network.dyn_peer[29]  lookupStabilitySig:vector  ETV
vector 6588  Network.dyn_peer[29]  lookupTimeSig:vector  ETV
vector 6499  Network.dyn_peer[0]  lookupHopsSig:vector  ETV
vector 6500  Network.dyn_peer[0]  lookupStabilitySig:vector  ETV
vector 6501  Network.dyn_peer[0]  lookupTimeSig:vector  ETV
vector 6508  Network.dyn_peer[3]  lookupHopsSig:vector  ETV
vector 6509  Network.dyn_peer[3]  lookupStabilitySig:vector  ETV
vector 6510  Network.dyn_peer[3]  lookupTimeSig:vector  ETV
vector 6514  Network.dyn_peer[5]  lookupHopsSig:vector  ETV
vector 6515  Network.dyn_peer[5]  lookupStabilitySig:vector  ETV
vector 6516  Network.dyn_peer[5]  lookupTimeSig:vector  ETV
vector 6541  Network.dyn_peer[14]  lookupHopsSig:vector  ETV
vector 6542  Network.dyn_peer[14]  lookupStabilitySig:vector  ETV
vector 6543  Network.dyn_peer[14]  lookupTimeSig:vector  ETV
vector 6550  Network.dyn_peer[17]  lookupHopsSig:vector  ETV
vector 6551  Network.dyn_peer[17]  lookupStabilitySig:vector  ETV
vector 6552  Network.dyn_peer[17]  lookupTimeSig:vector  ETV
vector 6580  Network.dyn_peer[27]  lookupHopsSig:vector  ETV
vector 6581  Network.dyn_peer[27]  lookupStabilitySig:vector  ETV
vector 6582  Network.dyn_peer[27]  lookupTimeSig:vector  ETV
vector 6583  Network.dyn_peer[28]  lookupHopsSig:vector  ETV
vector 6584  Network.dyn_peer[28]  lookupStabilitySig:vector  ETV
vector 6585  Network.dyn_peer[28]  lookupTimeSig:vector  ETV
vector 6589  Network.dyn_peer[30]  lookupHopsSig:vector  ETV
vector 6590  Network.dyn_peer[30]  lookupStabilitySig:vector  ETV
vector 6591  Network.dyn_peer[30]  lookupTimeSig:vector  ETV
vector 6505  Network.dyn_peer[2]  lookupHopsSig:vector  ETV
vector 6506  Network.dyn_peer[2]  lookupStabilitySig:vector  ETV
vector 6507  Network.dyn_peer[2]  lookupTimeSig:vector  ETV
vector 6517  Network.dyn_peer[6]  lookupHopsSig:vector  ETV
vector 6518  Network.dyn_peer[6]  lookupStabilitySig:vector  ETV
vector 6519  Network.dyn_peer[6]  lookupTimeSig:vector  ETV
vector 6520  Network.dyn_peer[7]  lookupHopsSig:vector  ETV
vector 6521  Network.dyn_peer[7]  lookupStabilitySig:vector  ETV
vector 6522  Network.dyn_peer[7]  lookupTimeSig:vector  ETV
vector 6526  Network.dyn_peer[9]  lookupHopsSig:vector  ETV
vector 6527  Network.dyn_peer[9]  lookupStabilitySig:vector  ETV
vector 6528  Network.dyn_peer[9]  lookupTimeSig:vector  ETV
vector 6535  Network.dyn_peer[12]  lookupHopsSig:vector  ETV
vector 6536  Network.dyn_peer[12]  lookupStabilitySig:vector  ETV
vector 6537  Network.dyn_peer[12]  lookupTimeSig:vector  ETV
vector 6538  Network.dyn_peer[13]  lookupHopsSig:vector  ETV
vector 6539  Network.dyn_peer[13]  lookupStabilitySig:vector  ETV
vector 6540  Network.dyn_peer[13]  lookupTimeSig:vector  ETV
vector 6547  Network.dyn_peer[16]  lookupHopsSig:vector  ETV
vector 6548  Network.dyn_peer[16]  lookupStabilitySig:vector  ETV
vector 6549  Network.dyn_peer[16]  lookupTimeSig:vector  ETV
vector 6553  Network.dyn_peer[18]  lookupHopsSig:vector  ETV
vector 6554  Network.dyn_peer[18]  lookupStabilitySig:vector  ETV
vector 6555  Network.dyn_peer[18]  lookupTimeSig:vector  ETV
vector 6562  Network.dyn_peer[21]  lookupHopsSig:vector  ETV
vector 6563  Network.dyn_peer[21]  lookupStabilitySig:vector  ETV
vector 6564  Network.dyn_peer[21]  lookupTimeSig:vector  ETV
vector 6571  Network.dyn_peer[24]  lookupHopsSig:vector  ETV
vector 6572  Network.dyn_peer[24]  lookupStabilitySig:vector  ETV
vector 6573  Network.dyn_peer[24]  lookupTimeSig:vector  ETV
vector 6592  Network.dyn_peer[31]  lookupHopsSig:vector  ETV
vector 6593  Network.dyn_peer[31]  lookupStabilitySig:vector  ETV
vector 6594  Network.dyn_peer[31]  lookupTimeSig:vector  ETV
vector 6523  Network.dyn_peer[8]  lookupHopsSig:vector  ETV
vector 6524  Network.dyn_peer[8]  lookupStabilitySig:vector  ETV
vector 6525  Network.dyn_peer[8]  lookupTimeSig:vector  ETV
vector 6532  Network.dyn_peer[11]  lookupHopsSig:vector  ETV
vector 6533  Network.dyn_peer[11]  lookupStabilitySig:vector  ETV
vector 6534  Network.dyn_peer[11]  lookupTimeSig:vector  ETV
vector 6559  Network.dyn_peer[20]  lookupHopsSig:vector  ETV
vector 6560  Network.dyn_peer[20]  lookupStabilitySig:vector  ETV
vector 6561  Network.dyn_peer[20]  lookupTimeSig:vector  ETV
vector 6574  Network.dyn_peer[25]  lookupHopsSig:vector  ETV
vector 6575  Network.dyn_peer[25]  lookupStabilitySig:vector  ETV
vector 6576  Network.dyn_peer[25]  lookupTimeSig:vector  ETV
vector 6565  Network.dyn_peer[22]  lookupHopsSig:vector  ETV
vector 6566  Network.dyn_peer[22]  lookupStabilitySig:vector  ETV
vector 6567  Network.dyn_peer[22]  lookupTimeSig:vector  ETV
vector 6529  Network.dyn_peer[10]  lookupHopsSig:vector  ETV
vector 6530  Network.dyn_peer[10]  lookupStabilitySig:vector  ETV
vector 6531  Network.dyn_peer[10]  lookupTimeSig:vector  ETV
6499	151	20.101	1
6499	462	20.601	4
6499	1003	21.205831733665	7
6499	1476	21.605831733665	3
6499	2042	22.012944827738	3
6499	2419	22.24785563389	3
6499	2802	22.613072182165	5
6499	3352	22.941212004207	1
6499	3553	23.067224608981	1
6499	3676	23.149739040717	11
6499	3781	23.241650288144	2
6499	3838	23.252040066936	0
6499	4239	23.552040066936	2
6499	4455	23.754937479526	1
6499	4962	24.065275641371	3
6499	5822	24.765275641371	7
6499	6413	25.371360880963	5
6499	6775	25.675810422698	3
6499	7410	26.275810422698	5
6499	7926	26.776985761135	4
6499	8142	26.983601674941	1
6499	8217	27.075568989226	4
6499	8533	27.377988934581	2
6499	8775	27.581234391321	1
6499	8787	27.584075195612	5
6499	8815	27.606310596389	7
6499	8825	27.660103899046	1
6499	8848	27.670242409797	3
6499	9175	27.984464991477	3
6499	9298	28.086011839909	4
6499	9565	28.291453363574	2
6499	9864	28.498783120139	2
6499	10078	28.698783120139	1
6499	10791	29.208357948303	5
6499	10875	29.299443627739	1
6499	11245	29.607905900029	3
6499	11542	29.907905900029	2
6499	12396	30.694141060405	3
6499	12458	30.716620670637	10
6499	12822	31.012972758258	2
6499	12837	31.017890789165	2
6499	13169	31.323076647268	1
6499	13260	31.418505464738	3
6499	13498	31.619973252763	2
6499	14192	32.219973252763	6
6499	14453	32.432208049525	2
6499	14867	32.747546645406	2
6499	14908	32.767302065125	2
6499	15347	33.159080803568	1
6499	15358	33.170817518612	5
6499	15688	33.468770611867	3
6499	16340	33.978689662339	6
6499	16775	34.378689662339	3
6499	17135	34.686171893595	3
6499	17561	34.987271893595	3
6499	18525	35.887271893595	8
6499	19172	36.388342772044	4
6499	19380	36.571469390909	4
6499	20131	37.17378220138	6
6499	20851	37.77378220138	5
6499	21320	38.274607198236	4
6499	21946	38.796812097081	5
6499	22024	38.887338814933	6
6499	22374	39.196941123648	3
6499	22759	39.499425360816	3
6499	22987	39.699425360816	1
6499	23801	40.4059105188	3
6499	24383	40.816726683844	5
6499	25929	42.219030884218	12
6499	26926	43.219030884218	10
6499	27857	44.02850073808	7
6499	28096	44.234386985652	1
6499	28128	44.241231526678	0
6499	28631	44.641231526678	4
6499	28811	44.748426762549	1
6499	29365	45.148426762549	3
6499	29882	45.521021780786	6
6499	30580	46.122121780786	6
6499	32109	47.122121780786	11
6499	33147	47.972125046433	3
6499	34043	48.672125046433	7
6499	34367	48.878570510529	1
6499	35148	49.457004110533	4
6499	35965	50.058643773663	6
6499	36335	50.358643773663	2
6499	36749	50.66382854842	2
6499	37345	51.17284953054	5
6499	37802	51.57284953054	3
6499	38236	51.890813524384	1
6499	38662	52.290813524384	3
6499	38987	52.592979474904	5
6499	39097	52.697318048734	4
6499	39176	52.795358927153	3
6499	39392	52.994121307405	3
6499	39410	52.99622550144	0
6499	39593	53.19622550144	1
6499	39887	53.49781037476	2
6499	40581	54.104665780755	6
6499	40874	54.314042543844	1
6499	41744	55.015761740528	7
6499	42305	55.515761740528	4
6499	43339	56.416911817534	9
6499	44052	57.032428693453	6
6499	44574	57.437754107926	3
6499	44651	57.466770853276	4
6499	44807	57.640472381607	4
6499	45220	57.944347207564	2
6499	45234	57.948196151552	2
6499	45528	58.151691892741	2
6499	46266	58.751691892741	5
6499	46894	59.259337413506	4
6499	47395	59.659942083148	4
6499	48000	60.170181248728	5
6499	49222	61.370181248728	11
6499	50602	62.590905866377	9
6499	50692	62.630539558697	11
6499	50707	62.675493151913	13
6499	51294	63.183424406175	5
6499	51626	63.483424406175	3
6499	52280	63.98531219897	4
6499	52629	64.293116871688	3
6499	53027	64.600707721013	2
6499	53050	64.610095066507	2
6499	53278	64.809076005517	1
6499	53289	64.810708443764	1
6499	53668	65.113582995749	3
6499	54053	65.422914101873	2
6499	54295	65.628415507636	2
6499	55431	66.628415507636	9
6499	55700	66.838896121647	2
6499	56079	67.140707863948	3
6499	56414	67.440707863948	2
6499	57142	68.045597805733	5
6499	58300	69.053653163907	10
6499	58687	69.353653163907	3
6499	59121	69.762080913597	3
6499	60246	70.664526687314	8
6499	61398	71.57991290108	8
6499	61692	71.796698291953	4
6499	61904	71.986074816763	3
6499	62284	72.29135705096	2
6499	62459	72.402987063887	5
6499	62791	72.705948383432	3
6499	62794	72.70654778508	3
6499	63022	72.911676427689	2
6499	63300	73.211676427689	2
6499	63604	73.517384928431	2
6499	64595	74.322164783518	10
6499	64608	74.325707361771	10
6499	65180	74.727492481588	4
6499	65521	75.027492481588	2
6499	65741	75.234650104128	1
6499	65930	75.445621229257	1
6499	66288	75.74892152388	3
6499	66831	76.24892152388	4
6499	67708	77.051748385654	7
6499	67958	77.274567203925	5
6499	68291	77.575881024161	3
6499	68676	77.856179919816	7
6499	69109	78.166856577221	4
6499	69382	78.466856577221	2
6499	69900	78.872188244451	4
6499	70274	79.178328578253	2
6499	70744	79.502508229736	2
6499	70874	79.578677171547	4
6499	72731	80.984032981091	14
6499	73841	81.984032981091	9
6499	74317	82.384492228008	3
6499	74647	82.665460777868	3
6499	74966	82.874917152631	1
6499	75114	82.988625921125	6
6499	75710	83.490518847162	6
6499	76791	84.290518847162	8
6499	77415	84.693748295799	3
6499	77450	84.69915069686	3
6499	77772	84.997550995902	2
6499	78047	85.198650995902	2
6499	78287	85.398650995902	1
6499	78924	85.806047660074	4
6499	79552	86.310791581788	4
6499	79823	86.521233574191	1
6499	80095	86.715292291859	13
6499	80255	86.828883206154	2
6499	80795	87.335117758878	5
6499	81608	88.035117758878	6
6499	82404	88.541078563514	4
6499	83309	89.350640665278	7
6499	83355	89.425912933662	6
6499	83693	89.72746679098	4
6499	84338	90.22746679098	4
6499	84593	90.42856679098	2
6499	85361	91.12856679098	6
6499	85819	91.442552399264	1
6499	86081	91.636892135647	5
6499	86345	91.847827793689	3
6499	86563	92.045316816075	3
6499	86586	92.064476393585	2
6499	86795	92.251172797648	3
6499	86812	92.252272797648	0
6499	87834	93.250271619142	6
6499	88359	93.750271619142	4
6499	88635	93.958641263614	1
6499	88651	93.972721240603	1
6499	88967	94.182307306225	2
6499	89491	94.582307306225	3
6499	89902	94.982850238321	3
6499	90198	95.234839227758	1
6499	90288	95.290999767599	3
6499	90905	95.899587868968	6
6499	91164	96.099587868968	1
6499	91651	96.513291868228	3
6499	92363	97.014391868228	6
6499	93072	97.514391868228	5
6499	94056	98.232478509611	6
6499	94073	98.253622534452	3
6499	94456	98.556987360621	3
6499	95311	99.256987360621	6
6499	95598	99.461163947447	1
6499	96101	99.829927997122	4
6499	96277	99.967312942249	4
6499	96471	100.139802436575	2
6499	96487	100.150910852569	1
6499	97361	100.755519806966	7
6499	97615	100.955519806966	1
6499	98655	101.863229080068	9
6499	99300	102.363276900664	4
6499	99716	102.64729273857	2
6499	100379	103.15112338167	5
6499	100960	103.655758635343	5
6499	101375	104.055758635343	3
6499	102395	104.862159921593	8
6499	102401	104.862437464184	2
6499	102437	104.874223522964	4
6499	102492	104.938399611592	2
6499	102502	104.948416711631	7
6499	102809	105.162738246796	1
6499	103363	105.569617536429	4
6499	103723	105.869617536429	2
6499	104588	106.570717536429	7
6499	105279	107.270717536429	6
6499	105689	107.674849369075	3
6499	106147	108.084726447482	3
6499	106574	108.467658667437	5
6499	107270	109.078064962692	6
6499	108039	109.778064962692	7
6499	108890	110.581013324322	7
6499	109606	111.282423424977	6
6499	109682	111.335224296855	6
6499	109958	111.58666579155	2
6499	109985	111.619315154124	6
6499	110323	111.894550086387	2
6499	110888	112.327871463305	6
6499	111125	112.495328065561	6
6499	112070	113.204023306218	8
6499	112890	113.904023306218	7
6499	113050	114.013469453508	1
6499	114192	114.913469453508	8
6499	114906	115.465085708444	3
6499	115003	115.551600761711	5
6499	115145	115.668912871071	2
6499	115216	115.756923945203	1
6499	115242	115.762390442316	0
6499	115601	116.162390442316	3
6499	115932	116.485707884715	2
6499	116384	116.891534652002	3
6499	116657	117.114379682335	1
6499	116878	117.316908674111	1
6499	117122	117.500949584463	6
6499	118170	118.402049584463	10
6499	119425	119.502049584463	12
6499	119822	119.809003611155	2
6499	119833	119.85416941446	1
6499	120286	120.254372907695	3
6499	120366	120.313700497687	5
6499	120777	120.758108243792	4
6499	120886	120.81814847288	4
6499	121348	121.263470574532	4
6499	121479	121.321815955515	5
6499	121522	121.374309881304	1
6499	121584	121.414046976004	6
6499	122011	121.7216316045	4
6499	122310	121.9216316045	1
6499	122568	122.127084219491	2
6499	123395	122.896046623796	5
6499	124485	123.898402685304	10
6499	124871	124.198402685304	2
6499	125420	124.705769944833	4
6499	125792	125.014587055458	2
6499	126056	125.220675112478	1
6499	126606	125.731664807251	5
6499	126835	125.931664807251	1
6499	127159	126.236219674979	2
6499	127684	126.663306157498	3
6499	128122	127.036270015009	3
6499	128259	127.145567203133	9
6499	128541	127.346417487244	1
6499	128576	127.354923203145	0
6499	129002	127.654923203145	2
6499	129362	127.960044333448	2
6499	129776	128.261144333448	3
6499	130429	128.761144333448	4
6499	131264	129.612557143282	5
6499	131584	129.912557143282	2
6499	132200	130.415040246068	4
6499	132417	130.619930532012	1
6499	132554	130.721030532012	1
6499	132966	131.021030532012	2
6499	133321	131.322740813314	2
6499	133633	131.630807563906	2
6499	133881	131.850680311742	3
6499	134017	132.035444447441	3
6499	134031	132.036544447441	0
6499	134723	132.736544447441	6
6499	135157	133.050771168341	5
6499	135351	133.240049951884	4
6499	135399	133.256976233842	1
6499	135845	133.56341886639	2
6499	135861	133.591589116783	1
6499	136226	133.893075384704	4
6499	136662	134.293075384704	3
6499	137155	134.804764235495	4
6499	137349	135.02365149343	1
6500	151	20.101	0.875
6500	462	20.601	0.5
6500	1003	21.205831733665	0.125
6500	1476	21.605831733665	0.625
6500	2042	22.012944827738	0.625
6500	2419	22.24785563389	0.625
6500	2802	22.613072182165	0.375
6500	3352	22.941212004207	0.875
6500	3553	23.067224608981	0.875
6500	3676	23.149739040717	-0.375
6500	3781	23.241650288144	0.75
6500	3838	23.252040066936	1
6500	4239	23.552040066936	0.75
6500	4455	23.754937479526	0.875
6500	4962	24.065275641371	0.625
6500	5822	24.765275641371	0.125
6500	6413	25.371360880963	0.375
6500	6775	25.675810422698	0.625
6500	7410	26.275810422698	0.375
6500	7926	26.776985761135	0.5
6500	8142	26.983601674941	0.875
6500	8217	27.075568989226	0.5
6500	8533	27.377988934581	0.75
6500	8775	27.581234391321	0.875
6500	8787	27.584075195612	0.375
6500	8815	27.606310596389	0.125
6500	8825	27.660103899046	0.875
6500	8848	27.670242409797	0.625
6500	9175	27.984464991477	0.625
6500	9298	28.086011839909	0.5
6500	9565	28.291453363574	0.75
6500	9864	28.498783120139	0.75
6500	10078	28.698783120139	0.875
6500	10791	29.208357948303	0.375
6500	10875	29.299443627739	0.875
6500	11245	29.607905900029	0.625
6500	11542	29.907905900029	0.75
6500	12396	30.694141060405	0.625
6500	12458	30.716620670637	-0.25
6500	12822	31.012972758258	0.75
6500	12837	31.017890789165	0.75
6500	13169	31.323076647268	0.875
6500	13260	31.418505464738	0.625
6500	13498	31.619973252763	0.75
6500	14192	32.219973252763	0.25
6500	14453	32.432208049525	0.75
6500	14867	32.747546645406	0.75
6500	14908	32.767302065125	0.75
6500	15347	33.159080803568	0.875
6500	15358	33.170817518612	0.375
6500	15688	33.468770611867	0.625
6500	16340	33.978689662339	0.25
6500	16775	34.378689662339	0.625
6500	17135	34.686171893595	0.625
6500	17561	34.987271893595	0.625
6500	18525	35.887271893595	0
6500	19172	36.388342772044	0.5
6500	19380	36.571469390909	0.5
6500	20131	37.17378220138	0.25
6500	20851	37.77378220138	0.375
6500	21320	38.274607198236	0.5
6500	21946	38.796812097081	0.375
6500	22024	38.887338814933	0.25
6500	22374	39.196941123648	0.625
6500	22759	39.499425360816	0.625
6500	22987	39.699425360816	0.875
6500	23801	40.4059105188	0.625
6500	24383	40.816726683844	0.375
6500	25929	42.219030884218	-0.5
6500	26926	43.219030884218	-0.25
6500	27857	44.02850073808	0.125
6500	28096	44.234386985652	0.875
6500	28128	44.241231526678	1
6500	28631	44.641231526678	0.5
6500	28811	44.748426762549	0.875
6500	29365	45.148426762549	0.625
6500	29882	45.521021780786	0.25
6500	30580	46.122121780786	0.25
6500	32109	47.122121780786	-0.375
6500	33147	47.972125046433	0.625
6500	34043	48.672125046433	0.125
6500	34367	48.878570510529	0.875
6500	35148	49.457004110533	0.5
6500	35965	50.058643773663	0.25
6500	36335	50.358643773663	0.75
6500	36749	50.66382854842	0.75
6500	37345	51.17284953054	0.375
6500	37802	51.57284953054	0.625
6500	38236	51.890813524384	0.875
6500	38662	52.290813524384	0.625
6500	38987	52.592979474904	0.375
6500	39097	52.697318048734	0.5
6500	39176	52.795358927153	0.625
6500	39392	52.994121307405	0.625
6500	39410	52.99622550144	1
6500	39593	53.19622550144	0.875
6500	39887	53.49781037476	0.75
6500	40581	54.104665780755	0.25
6500	40874	54.314042543844	0.875
6500	41744	55.015761740528	0.125
6500	42305	55.515761740528	0.5
6500	43339	56.416911817534	-0.125
6500	44052	57.032428693453	0.25
6500	44574	57.437754107926	0.625
6500	44651	57.466770853276	0.5
6500	44807	57.640472381607	0.5
6500	45220	57.944347207564	0.75
6500	45234	57.948196151552	0.75
6500	45528	58.151691892741	0.75
6500	46266	58.751691892741	0.375
6500	46894	59.259337413506	0.5
6500	47395	59.659942083148	0.5
6500	48000	60.170181248728	0.375
6500	49222	61.370181248728	-0.375
6500	50602	62.590905866377	-0.125
6500	50692	62.630539558697	-0.375
6500	50707	62.675493151913	-0.625
6500	51294	63.183424406175	0.375
6500	51626	63.483424406175	0.625
6500	52280	63.98531219897	0.5
6500	52629	64.293116871688	0.625
6500	53027	64.600707721013	0.75
6500	53050	64.610095066507	0.75
6500	53278	64.809076005517	0.875
6500	53289	64.810708443764	0.875
6500	53668	65.113582995749	0.625
6500	54053	65.422914101873	0.75
6500	54295	65.628415507636	0.75
6500	55431	66.628415507636	-0.125
6500	55700	66.838896121647	0.75
6500	56079	67.140707863948	0.625
6500	56414	67.440707863948	0.75
6500	57142	68.045597805733	0.375
6500	58300	69.053653163907	-0.25
6500	58687	69.353653163907	0.625
6500	59121	69.762080913597	0.625
6500	60246	70.664526687314	0
6500	61398	71.57991290108	0
6500	61692	71.796698291953	0.5
6500	61904	71.986074816763	0.625
6500	62284	72.29135705096	0.75
6500	62459	72.402987063887	0.375
6500	62791	72.705948383432	0.625
6500	62794	72.70654778508	0.625
6500	63022	72.911676427689	0.75
6500	63300	73.211676427689	0.75
6500	63604	73.517384928431	0.75
6500	64595	74.322164783518	-0.25
6500	64608	74.325707361771	-0.25
6500	65180	74.727492481588	0.5
6500	65521	75.027492481588	0.75
6500	65741	75.234650104128	0.875
6500	65930	75.445621229257	0.875
6500	66288	75.74892152388	0.625
6500	66831	76.24892152388	0.5
6500	67708	77.051748385654	0.125
6500	67958	77.274567203925	0.375
6500	68291	77.575881024161	0.625
6500	68676	77.856179919816	0.125
6500	69109	78.166856577221	0.5
6500	69382	78.466856577221	0.75
6500	69900	78.872188244451	0.5
6500	70274	79.178328578253	0.75
6500	70744	79.502508229736	0.75
6500	70874	79.578677171547	0.5
6500	72731	80.984032981091	-0.75
6500	73841	81.984032981091	-0.125
6500	74317	82.384492228008	0.625
6500	74647	82.665460777868	0.625
6500	74966	82.874917152631	0.875
6500	75114	82.988625921125	0.25
6500	75710	83.490518847162	0.25
6500	76791	84.290518847162	0
6500	77415	84.693748295799	0.625
6500	77450	84.69915069686	0.625
6500	77772	84.997550995902	0.75
6500	78047	85.198650995902	0.75
6500	78287	85.398650995902	0.875
6500	78924	85.806047660074	0.5
6500	79552	86.310791581788	0.5
6500	79823	86.521233574191	0.875
6500	80095	86.715292291859	-0.625
6500	80255	86.828883206154	0.75
6500	80795	87.335117758878	0.375
6500	81608	88.035117758878	0.25
6500	82404	88.541078563514	0.5
6500	83309	89.350640665278	0.125
6500	83355	89.425912933662	0.25
6500	83693	89.72746679098	0.5
6500	84338	90.22746679098	0.5
6500	84593	90.42856679098	0.75
6500	85361	91.12856679098	0.25
6500	85819	91.442552399264	0.875
6500	86081	91.636892135647	0.375
6500	86345	91.847827793689	0.625
6500	86563	92.045316816075	0.625
6500	86586	92.064476393585	0.75
6500	86795	92.251172797648	0.625
6500	86812	92.252272797648	1
6500	87834	93.250271619142	0.25
6500	88359	93.750271619142	0.5
6500	88635	93.958641263614	0.875
6500	88651	93.972721240603	0.875
6500	88967	94.182307306225	0.75
6500	89491	94.582307306225	0.625
6500	89902	94.982850238321	0.625
6500	90198	95.234839227758	0.875
6500	90288	95.290999767599	0.625
6500	90905	95.899587868968	0.25
6500	91164	96.099587868968	0.875
6500	91651	96.513291868228	0.625
6500	92363	97.014391868228	0.25
6500	93072	97.514391868228	0.375
6500	94056	98.232478509611	0.25
6500	94073	98.253622534452	0.625
6500	94456	98.556987360621	0.625
6500	95311	99.256987360621	0.25
6500	95598	99.461163947447	0.875
6500	96101	99.829927997122	0.5
6500	96277	99.967312942249	0.5
6500	96471	100.139802436575	0.75
6500	96487	100.150910852569	0.875
6500	97361	100.755519806966	0.125
6500	97615	100.955519806966	0.875
6500	98655	101.863229080068	-0.125
6500	99300	102.363276900664	0.5
6500	99716	102.64729273857	0.75
6500	100379	103.15112338167	0.375
6500	100960	103.655758635343	0.44444441795349
6500	101375	104.055758635343	0.625
6500	102395	104.862159921593	0
6500	102401	104.862437464184	0.75
6500	102437	104.874223522964	0.5
6500	102492	104.938399611592	0.75
6500	102502	104.948416711631	0.125
6500	102809	105.162738246796	0.875
6500	103363	105.569617536429	0.5
6500	103723	105.869617536429	0.75
6500	104588	106.570717536429	0.125
6500	105279	107.270717536429	0.25
6500	105689	107.674849369075	0.625
6500	106147	108.084726447482	0.625
6500	106574	108.467658667437	0.375
6500	107270	109.078064962692	0.25
6500	108039	109.778064962692	0.125
6500	108890	110.581013324322	0.125
6500	109606	111.282423424977	0.25
6500	109682	111.335224296855	0.25
6500	109958	111.58666579155	0.75
6500	109985	111.619315154124	0.25
6500	110323	111.894550086387	0.75
6500	110888	112.327871463305	0.25
6500	111125	112.495328065561	0.25
6500	112070	113.204023306218	0
6500	112890	113.904023306218	0.125
6500	113050	114.013469453508	0.875
6500	114192	114.913469453508	0
6500	114906	115.465085708444	0.625
6500	115003	115.551600761711	0.375
6500	115145	115.668912871071	0.75
6500	115216	115.756923945203	0.875
6500	115242	115.762390442316	1
6500	115601	116.162390442316	0.625
6500	115932	116.485707884715	0.75
6500	116384	116.891534652002	0.625
6500	116657	117.114379682335	0.875
6500	116878	117.316908674111	0.875
6500	117122	117.500949584463	0.25
6500	118170	118.402049584463	-0.25
6500	119425	119.502049584463	-0.5
6500	119822	119.809003611155	0.75
6500	119833	119.85416941446	0.875
6500	120286	120.254372907695	0.625
6500	120366	120.313700497687	0.375
6500	120777	120.758108243792	0.5
6500	120886	120.81814847288	0.5
6500	121348	121.263470574532	0.5
6500	121479	121.321815955515	0.375
6500	121522	121.374309881304	0.875
6500	121584	121.414046976004	0.25
6500	122011	121.7216316045	0.5
6500	122310	121.9216316045	0.875
6500	122568	122.127084219491	0.75
6500	123395	122.896046623796	0.375
6500	124485	123.898402685304	-0.25
6500	124871	124.198402685304	0.75
6500	125420	124.705769944833	0.5
6500	125792	125.014587055458	0.75
6500	126056	125.220675112478	0.875
6500	126606	125.731664807251	0.375
6500	126835	125.931664807251	0.875
6500	127159	126.236219674979	0.75
6500	127684	126.663306157498	0.625
6500	128122	127.036270015009	0.625
6500	128259	127.145567203133	-0.125
6500	128541	127.346417487244	0.875
6500	128576	127.354923203145	1
6500	129002	127.654923203145	0.75
6500	129362	127.960044333448	0.75
6500	129776	128.261144333448	0.625
6500	130429	128.761144333448	0.5
6500	131264	129.612557143282	0.375
6500	131584	129.912557143282	0.75
6500	132200	130.415040246068	0.5
6500	132417	130.619930532012	0.875
6500	132554	130.721030532012	0.875
6500	132966	131.021030532012	0.75
6500	133321	131.322740813314	0.75
6500	133633	131.630807563906	0.75
6500	133881	131.850680311742	0.625
6500	134017	132.035444447441	0.625
6500	134031	132.036544447441	1
6500	134723	132.736544447441	0.25
6500	135157	133.050771168341	0.375
6500	135351	133.240049951884	0.5
6500	135399	133.256976233842	0.875
6500	135845	133.56341886639	0.75
6500	135861	133.591589116783	0.875
6500	136226	133.893075384704	0.5
6500	136662	134.293075384704	0.625
6500	137155	134.804764235495	0.5
6500	137349	135.02365149343	0.875
6501	151	20.101	0.1
6501	462	20.601	0.5
6501	1003	21.205831733665	0.6
6501	1476	21.605831733665	0.4
6501	2042	22.012944827738	0.4
6501	2419	22.24785563389	0.4
6501	2802	22.613072182165	0.6
6501	3352	22.941212004207	0.1
6501	3553	23.067224608981	0.2
6501	3676	23.149739040717	0.9
6501	3781	23.241650288144	0.3
6501	3838	23.252040066936	0
6501	4239	23.552040066936	0.3
6501	4455	23.754937479526	0.2
6501	4962	24.065275641371	0.3
6501	5822	24.765275641371	0.7
6501	6413	25.371360880963	0.6
6501	6775	25.675810422698	0.3
6501	7410	26.275810422698	0.6
6501	7926	26.776985761135	0.5
6501	8142	26.983601674941	0.2
6501	8217	27.075568989226	0.5
6501	8533	27.377988934581	0.3
6501	8775	27.581234391321	0.2
6501	8787	27.584075195612	0.6
6501	8815	27.606310596389	0.7
6501	8825	27.660103899046	0.2
6501	8848	27.670242409797	0.3
6501	9175	27.984464991477	0.4
6501	9298	28.086011839909	0.5
6501	9565	28.291453363574	0.3
6501	9864	28.498783120139	0.2
6501	10078	28.698783120139	0.2
6501	10791	29.208357948303	0.5
6501	10875	29.299443627739	0.2
6501	11245	29.607905900029	0.3
6501	11542	29.907905900029	0.3
6501	12396	30.694141060405	0.4
6501	12458	30.716620670637	0.8
6501	12822	31.012972758258	0.3
6501	12837	31.017890789165	0.3
6501	13169	31.323076647268	0.2
6501	13260	31.418505464738	0.4
6501	13498	31.619973252763	0.2
6501	14192	32.219973252763	0.6
6501	14453	32.432208049525	0.2
6501	14867	32.747546645406	0.3
6501	14908	32.767302065125	0.3
6501	15347	33.159080803568	0.2
6501	15358	33.170817518612	0.4
6501	15688	33.468770611867	0.3
6501	16340	33.978689662339	0.5
6501	16775	34.378689662339	0.4
6501	17135	34.686171893595	0.3
6501	17561	34.987271893595	0.3
6501	18525	35.887271893595	0.9
6501	19172	36.388342772044	0.5
6501	19380	36.571469390909	0.5
6501	20131	37.17378220138	0.6
6501	20851	37.77378220138	0.6
6501	21320	38.274607198236	0.5
6501	21946	38.796812097081	0.5
6501	22024	38.887338814933	0.6
6501	22374	39.196941123648	0.3
6501	22759	39.499425360816	0.3
6501	22987	39.699425360816	0.2
6501	23801	40.4059105188	0.4
6501	24383	40.816726683844	0.4
6501	25929	42.219030884218	1.2
6501	26926	43.219030884218	1
6501	27857	44.02850073808	0.8
6501	28096	44.234386985652	0.2
6501	28128	44.241231526678	0
6501	28631	44.641231526678	0.4
6501	28811	44.748426762549	0.1
6501	29365	45.148426762549	0.4
6501	29882	45.521021780786	0.6
6501	30580	46.122121780786	0.6
6501	32109	47.122121780786	1
6501	33147	47.972125046433	0.3
6501	34043	48.672125046433	0.7
6501	34367	48.878570510529	0.2
6501	35148	49.457004110533	0.5
6501	35965	50.058643773663	0.6
6501	36335	50.358643773663	0.3
6501	36749	50.66382854842	0.3
6501	37345	51.17284953054	0.5
6501	37802	51.57284953054	0.4
6501	38236	51.890813524384	0.1
6501	38662	52.290813524384	0.4
6501	38987	52.592979474904	0.5
6501	39097	52.697318048734	0.4
6501	39176	52.795358927153	0.4
6501	39392	52.994121307405	0.4
6501	39410	52.99622550144	0
6501	39593	53.19622550144	0.2
6501	39887	53.49781037476	0.3
6501	40581	54.104665780755	0.6
6501	40874	54.314042543844	0.2
6501	41744	55.015761740528	0.7
6501	42305	55.515761740528	0.5
6501	43339	56.416911817534	0.9
6501	44052	57.032428693453	0.6
6501	44574	57.437754107926	0.4
6501	44651	57.466770853276	0.5
6501	44807	57.640472381607	0.5
6501	45220	57.944347207564	0.3
6501	45234	57.948196151552	0.3
6501	45528	58.151691892741	0.2
6501	46266	58.751691892741	0.6
6501	46894	59.259337413506	0.5
6501	47395	59.659942083148	0.4
6501	48000	60.170181248728	0.5
6501	49222	61.370181248728	1.2
6501	50602	62.590905866377	1
6501	50692	62.630539558697	1.1
6501	50707	62.675493151913	1.3