version 2
run Stability-119-20130526-18:55:07-1898
attr configname Stability
attr datetime 20130526-18:55:07
attr experiment Stability
attr inifile omnetpp.ini
attr iterationvars $0=1e-5
attr iterationvars2 "$0=1e-5, $repetition=9"
attr measurement $0=1e-5
attr network Network
attr processid 1898
attr repetition 9
attr replication #9
attr resultdir results
attr runnumber 119
attr seedset 119

vector 11639  Network.churner  inGoingSizeSig:vector  ETV
vector 11549  Network.dyn_peer[2]  lookupHopsSig:vector  ETV
vector 11550  Network.dyn_peer[2]  lookupStabilitySig:vector  ETV
vector 11551  Network.dyn_peer[2]  lookupTimeSig:vector  ETV
vector 11636  Network.dyn_peer[31]  lookupHopsSig:vector  ETV
vector 11637  Network.dyn_peer[31]  lookupStabilitySig:vector  ETV
vector 11638  Network.dyn_peer[31]  lookupTimeSig:vector  ETV
vector 11552  Network.dyn_peer[3]  lookupHopsSig:vector  ETV
vector 11553  Network.dyn_peer[3]  lookupStabilitySig:vector  ETV
vector 11554  Network.dyn_peer[3]  lookupTimeSig:vector  ETV
vector 11555  Network.dyn_peer[4]  lookupHopsSig:vector  ETV
vector 11556  Network.dyn_peer[4]  lookupStabilitySig:vector  ETV
vector 11557  Network.dyn_peer[4]  lookupTimeSig:vector  ETV
vector 11558  Network.dyn_peer[5]  lookupHopsSig:vector  ETV
vector 11559  Network.dyn_peer[5]  lookupStabilitySig:vector  ETV
vector 11560  Network.dyn_peer[5]  lookupTimeSig:vector  ETV
vector 11564  Network.dyn_peer[7]  lookupHopsSig:vector  ETV
vector 11565  Network.dyn_peer[7]  lookupStabilitySig:vector  ETV
vector 11566  Network.dyn_peer[7]  lookupTimeSig:vector  ETV
vector 11570  Network.dyn_peer[9]  lookupHopsSig:vector  ETV
vector 11571  Network.dyn_peer[9]  lookupStabilitySig:vector  ETV
vector 11572  Network.dyn_peer[9]  lookupTimeSig:vector  ETV
vector 11579  Network.dyn_peer[12]  lookupHopsSig:vector  ETV
vector 11580  Network.dyn_peer[12]  lookupStabilitySig:vector  ETV
vector 11581  Network.dyn_peer[12]  lookupTimeSig:vector  ETV
vector 11582  Network.dyn_peer[13]  lookupHopsSig:vector  ETV
vector 11583  Network.dyn_peer[13]  lookupStabilitySig:vector  ETV
vector 11584  Network.dyn_peer[13]  lookupTimeSig:vector  ETV
vector 11597  Network.dyn_peer[18]  lookupHopsSig:vector  ETV
vector 11598  Network.dyn_peer[18]  lookupStabilitySig:vector  ETV
vector 11599  Network.dyn_peer[18]  lookupTimeSig:vector  ETV
vector 11600  Network.dyn_peer[19]  lookupHopsSig:vector  ETV
vector 11601  Network.dyn_peer[19]  lookupStabilitySig:vector  ETV
vector 11602  Network.dyn_peer[19]  lookupTimeSig:vector  ETV
vector 11603  Network.dyn_peer[20]  lookupHopsSig:vector  ETV
vector 11604  Network.dyn_peer[20]  lookupStabilitySig:vector  ETV
vector 11605  Network.dyn_peer[20]  lookupTimeSig:vector  ETV
vector 11609  Network.dyn_peer[22]  lookupHopsSig:vector  ETV
vector 11610  Network.dyn_peer[22]  lookupStabilitySig:vector  ETV
vector 11611  Network.dyn_peer[22]  lookupTimeSig:vector  ETV
vector 11612  Network.dyn_peer[23]  lookupHopsSig:vector  ETV
vector 11613  Network.dyn_peer[23]  lookupStabilitySig:vector  ETV
vector 11614  Network.dyn_peer[23]  lookupTimeSig:vector  ETV
vector 11615  Network.dyn_peer[24]  lookupHopsSig:vector  ETV
vector 11616  Network.dyn_peer[24]  lookupStabilitySig:vector  ETV
vector 11617  Network.dyn_peer[24]  lookupTimeSig:vector  ETV
vector 11618  Network.dyn_peer[25]  lookupHopsSig:vector  ETV
vector 11619  Network.dyn_peer[25]  lookupStabilitySig:vector  ETV
vector 11620  Network.dyn_peer[25]  lookupTimeSig:vector  ETV
vector 11561  Network.dyn_peer[6]  lookupHopsSig:vector  ETV
vector 11562  Network.dyn_peer[6]  lookupStabilitySig:vector  ETV
vector 11563  Network.dyn_peer[6]  lookupTimeSig:vector  ETV
vector 11567  Network.dyn_peer[8]  lookupHopsSig:vector  ETV
vector 11568  Network.dyn_peer[8]  lookupStabilitySig:vector  ETV
vector 11569  Network.dyn_peer[8]  lookupTimeSig:vector  ETV
vector 11576  Network.dyn_peer[11]  lookupHopsSig:vector  ETV
vector 11577  Network.dyn_peer[11]  lookupStabilitySig:vector  ETV
vector 11578  Network.dyn_peer[11]  lookupTimeSig:vector  ETV
vector 11588  Network.dyn_peer[15]  lookupHopsSig:vector  ETV
vector 11589  Network.dyn_peer[15]  lookupStabilitySig:vector  ETV
vector 11590  Network.dyn_peer[15]  lookupTimeSig:vector  ETV
vector 11594  Network.dyn_peer[17]  lookupHopsSig:vector  ETV
vector 11595  Network.dyn_peer[17]  lookupStabilitySig:vector  ETV
vector 11596  Network.dyn_peer[17]  lookupTimeSig:vector  ETV
vector 11606  Network.dyn_peer[21]  lookupHopsSig:vector  ETV
vector 11607  Network.dyn_peer[21]  lookupStabilitySig:vector  ETV
vector 11608  Network.dyn_peer[21]  lookupTimeSig:vector  ETV
vector 11624  Network.dyn_peer[27]  lookupHopsSig:vector  ETV
vector 11625  Network.dyn_peer[27]  lookupStabilitySig:vector  ETV
vector 11626  Network.dyn_peer[27]  lookupTimeSig:vector  ETV
vector 11630  Network.dyn_peer[29]  lookupHopsSig:vector  ETV
vector 11631  Network.dyn_peer[29]  lookupStabilitySig:vector  ETV
vector 11632  Network.dyn_peer[29]  lookupTimeSig:vector  ETV
vector 11543  Network.dyn_peer[0]  lookupHopsSig:vector  ETV
vector 11544  Network.dyn_peer[0]  lookupStabilitySig:vector  ETV
vector 11545  Network.dyn_peer[0]  lookupTimeSig:vector  ETV
vector 11546  Network.dyn_peer[1]  lookupHopsSig:vector  ETV
vector 11547  Network.dyn_peer[1]  lookupStabilitySig:vector  ETV
vector 11548  Network.dyn_peer[1]  lookupTimeSig:vector  ETV
vector 11573  Network.dyn_peer[10]  lookupHopsSig:vector  ETV
vector 11574  Network.dyn_peer[10]  lookupStabilitySig:vector  ETV
vector 11575  Network.dyn_peer[10]  lookupTimeSig:vector  ETV
vector 11591  Network.dyn_peer[16]  lookupHopsSig:vector  ETV
vector 11592  Network.dyn_peer[16]  lookupStabilitySig:vector  ETV
vector 11593  Network.dyn_peer[16]  lookupTimeSig:vector  ETV
vector 11633  Network.dyn_peer[30]  lookupHopsSig:vector  ETV
vector 11634  Network.dyn_peer[30]  lookupStabilitySig:vector  ETV
vector 11635  Network.dyn_peer[30]  lookupTimeSig:vector  ETV
vector 11627  Network.dyn_peer[28]  lookupHopsSig:vector  ETV
vector 11628  Network.dyn_peer[28]  lookupStabilitySig:vector  ETV
vector 11629  Network.dyn_peer[28]  lookupTimeSig:vector  ETV
vector 11585  Network.dyn_peer[14]  lookupHopsSig:vector  ETV
vector 11586  Network.dyn_peer[14]  lookupStabilitySig:vector  ETV
vector 11587  Network.dyn_peer[14]  lookupTimeSig:vector  ETV
vector 11621  Network.dyn_peer[26]  lookupHopsSig:vector  ETV
vector 11622  Network.dyn_peer[26]  lookupStabilitySig:vector  ETV
vector 11623  Network.dyn_peer[26]  lookupTimeSig:vector  ETV
11543	288	20.30000001	3
11543	424	20.50000001	1
11543	614	20.800395431723	2
11543	1020	21.207797337049	5
11543	1028	21.207897337049	2
11543	1456	21.609033629564	4
11543	1460	21.609757804393	4
11543	1464	21.611914750414	4
11543	1713	21.813408736735	2
11543	2134	22.213408736735	3
11543	3189	23.212072460993	11
11543	3206	23.216030928367	9
11543	3218	23.223036588595	9
11543	4361	24.225862575643	10
11543	6094	25.725862575643	15
11543	6667	26.229733926699	5
11543	6911	26.434853199001	1
11543	7237	26.735675229779	2
11543	8528	27.837740853474	11
11543	9119	28.337740853474	4
11543	9629	28.746227825105	4
11543	9695	28.786125816117	2
11543	10020	29.155252539099	3
11543	10382	29.556199898426	5
11543	11055	30.156199898426	5
11543	11459	30.560345525522	3
11543	11904	30.96789050249	3
11543	12142	31.175779506623	2
11543	13655	32.475779506623	13
11543	14239	32.97901206088	4
11543	14557	33.181002943492	2
11543	15266	33.681002943492	4
11543	15417	33.783530854356	0
11543	16050	34.289712561156	4
11543	16397	34.590823645827	3
11543	17434	35.390823645827	8
11543	17537	35.502793736893	4
11543	17694	35.610138540789	1
11543	17783	35.709974315474	4
11543	17821	35.718691824876	11
11543	17827	35.721170541353	10
11543	17909	35.805727822342	2
11543	18027	35.914241215543	1
11543	18542	36.322587739245	2
11543	18809	36.526385455016	2
11543	19655	37.226385455016	7
11543	20481	37.83947799215	3
11543	22568	39.53947799215	17
11543	22930	39.84324041355	2
11543	22960	39.857138248963	2
11543	23091	39.958750177106	1
11543	23357	40.158750177106	1
11543	23712	40.460546288246	2
11543	24036	40.766022333782	2
11543	24136	40.842933160179	3
11543	24565	41.266339139237	4
11543	24883	41.552115359006	6
11543	25146	41.77552444311	4
11543	25233	41.859657356236	2
11543	25376	41.98285848044	1
11543	26592	42.792039136806	8
11543	27584	43.592039136806	7
11543	29256	44.89582931778	13
11543	29733	45.30337047919	4
11543	29984	45.50702289393	1
11543	30415	45.896711787727	3
11543	30430	45.910212331361	3
11543	30565	46.018614113941	1
11543	31595	46.818614113941	7
11543	32336	47.440402310156	4
11543	33572	48.421521299479	19
11543	34094	48.821621309479	4
11543	34787	49.421621309479	6
11543	35183	49.728880942223	2
11543	36433	50.835475163007	10
11543	36802	51.214533594361	12
11543	37033	51.444982527877	5
11543	37403	51.750383455716	2
11543	37575	51.921745634948	6
11543	38318	52.459027718217	6
11543	38359	52.527254937184	5
11543	38983	53.02851784028	5
11543	39475	53.42851784028	3
11543	39702	53.560182786788	2
11543	40029	53.766565465153	1
11543	40348	54.032891677609	5
11543	41153	54.633235775609	6
11543	42134	55.443693904782	5
11543	42240	55.533235775609	8
11543	42444	55.742512401087	1
11543	43054	56.243156504571	5
11543	43788	56.863110547875	1
11543	44212	57.169523556464	4
11543	44527	57.469523556464	2
11543	44745	57.665731762237	1
11543	44967	57.865731762237	1
11543	45181	58.077057412369	1
11543	45261	58.16700735953	3
11543	45445	58.364047763884	2
11543	45449	58.368290004043	2
11543	45970	58.868390014043	5
11543	47756	60.468390014043	16
11543	48479	61.068490024043	7
11543	48772	61.268490024043	1
11543	50167	62.468590034043	12
11543	50531	62.768590034043	2
11543	50990	63.170778588449	3
11543	51197	63.373085199286	1
11543	52203	64.174557302027	8
11543	52831	64.674557302027	4
11543	53210	64.982918826763	2
11543	53478	65.192941629939	2
11543	54734	66.292941629939	10
11543	55261	66.694549426672	4
11543	55573	66.9044249175	2
11543	56334	67.528458625628	7
11543	56430	67.634131630005	6
11543	56530	67.73407269832	1
11543	56558	67.771203826439	10
11543	56959	68.143278003273	4
11543	56996	68.184142974323	4
11543	57083	68.23912214488	4
11543	57136	68.272888363296	5
11543	57339	68.448946557059	3
11543	57520	68.593386878111	4
11543	57575	68.653050678025	1
11543	57678	68.717447535213	1
11543	57796	68.840305346657	5
11543	57800	68.842421323433	5
11543	58020	69.044531961999	2
11543	58700	69.644531961999	5
11543	59422	70.159179741933	4
11543	59812	70.459279751933	3
11543	60194	70.759279751933	2
11543	60560	71.066303239627	2
11543	61305	71.774689427687	6
11543	61591	72.039163396947	7
11543	61596	72.039803463991	7
11543	62059	72.441419791378	4
11543	62688	73.041419791378	5
11543	62921	73.250300664244	1
11543	63110	73.456839498885	1
11543	64181	74.367435992862	9
11543	64219	74.418205047208	5
11543	64714	74.809466451355	2
11543	64870	74.923481527129	4
11543	65205	75.224156285403	2
11543	65331	75.317116593641	4
11543	65347	75.320665803855	0
11543	66494	76.220665803855	8
11543	67109	76.720765813855	5
11543	68045	77.520765813855	7
11543	68279	77.738883040123	3
11543	68587	78.033964582581	4
11543	68593	78.039993191081	2
11543	69725	79.040093201081	11
11543	70177	79.440093201081	4
11543	70753	79.946518663888	4
11543	71230	80.354931561004	3
11543	71563	80.643381314746	4
11543	71875	80.947884281962	3
11543	72710	81.655457540172	7
11543	73285	82.055557550172	4
11543	73786	82.455557550172	3
11543	74079	82.66674008115	1
11543	74886	83.272257105142	6
11543	75224	83.581036949855	2
11543	75579	83.882504653901	3
11543	76108	84.382504653901	5
11543	76794	84.998319816409	5
11543	76866	85.028750596744	5
11543	77398	85.499698006565	4
11543	77610	85.63738714774	6
11543	77881	85.901664865902	4
11543	77946	85.942252676657	3
11543	78796	86.647894558922	8
11543	80397	87.960143260538	3
11543	80761	88.260143260538	2
11543	81047	88.460748944926	1
11543	81311	88.677122029305	1
11543	81858	89.18520403657	5
11543	82148	89.388560432492	2
11543	83020	90.088560432492	6
11543	83322	90.295283438044	2
11543	83612	90.486599022389	2
11543	83625	90.49785559633	1
11543	84091	90.803013621123	3
11543	84772	91.403013621123	5
11543	85439	91.910483632312	4
11543	85678	92.115632968964	1
11543	85894	92.281274433331	8
11543	86050	92.381374443331	1
11543	86546	92.78790872396	3
11543	87029	93.193225028836	3
11543	88163	94.196870293239	10
11543	88353	94.396870293239	1
11543	89209	95.019695861385	5
11543	89241	95.024754160533	5
11543	90012	95.628087936496	6
11543	90585	96.124246404695	2
11543	90594	96.129188493202	4
11543	90969	96.435888091989	4
11543	91714	97.035988101989	7
11543	92674	97.835988101989	7
11543	94122	98.945205788423	12
11543	94800	99.545205788423	5
11543	95457	100.145600703166	6
11543	95922	100.539736597461	6
11543	96179	100.743614301096	4
11543	96193	100.751212856846	5
11543	96427	100.942025550366	3
11543	96578	101.056843516557	4
11543	97036	101.365787070389	3
11543	97600	101.765787070389	4
11543	97892	101.993071818934	4
11543	98118	102.18625709658	4
11543	99811	103.588880778112	16
11543	100266	103.988880778112	3
11543	100576	104.295842488253	2
11543	101084	104.805940930602	5
11543	101116	104.815173980176	7
11543	101363	105.067615161598	6
11543	101536	105.21081411616	3
11543	101564	105.215647711056	3
11543	101946	105.518728828728	3
11543	102341	105.818728828728	2
11543	102893	106.326782774936	4
11543	103455	106.803340583572	6
11543	103974	107.211506827343	4
11543	104228	107.411506827343	1
11543	104492	107.625965685638	1
11543	105325	108.234898568429	5
11543	105547	108.441717992701	1
11543	107597	110.042328937085	18
11543	108077	110.442328937085	4
11543	108317	110.643067190126	1
11543	109362	111.544270092661	8
11543	109769	111.84663282257	3
11543	110501	112.453523886752	5
11543	110819	112.699226821462	4
11543	110980	112.860164272513	3
11543	111201	113.013104023415	2
11543	111378	113.167623370075	4
11543	111646	113.373253885765	1
11543	112179	113.779519262622	4
11543	113023	114.479519262622	6
11543	113689	114.98422709418	5
11543	114917	115.88422709418	10
11543	115588	116.39350816827	5
11543	116134	116.89350816827	4
11543	116358	117.100388050065	1
11543	116386	117.116204866104	1
11543	118378	118.725836989726	18
11543	119235	119.425836989726	6
11543	119604	119.729111551514	2
11543	119823	119.929660895226	1
11543	119841	119.9355281752	1
11543	120226	120.235884200702	2
11543	120228	120.236388868232	2
11543	120416	120.350179961465	4
11543	120622	120.536850106142	3
11543	120634	120.541669368088	3
11543	120654	120.555736400456	1
11543	120778	120.657736379684	3
11543	121100	120.862266189678	2
11543	121201	120.940983767799	3
11543	121206	120.944462657147	3
11543	121409	121.128742641019	3
11543	121434	121.146816494806	3
11543	121471	121.17012461257	2
11543	121632	121.265093314219	6
11543	121728	121.357221513024	1
11543	122036	121.561073424868	2
11543	122595	122.061073424868	5
11543	123267	122.667049181585	5
11543	123276	122.675421639395	5
11543	123728	123.07614590523	3
11543	123752	123.083809443188	3
11543	123846	123.16749644005	3
11543	124233	123.475325646298	4
11543	125288	124.375325646298	8
11543	125748	124.875681664098	4
11543	126398	125.461461925872	8
11543	126896	125.798543197776	5
11543	127046	125.962775646049	4
11543	127182	125.999570314935	1
11543	127234	126.073452217742	6
11543	127275	126.088586771034	1
11543	127994	126.590666615087	6
11543	128248	126.790666615087	1
11543	128487	126.997850359777	1
11543	130385	128.613677648815	5
11543	131371	129.396718784271	4
11543	131971	129.896718784271	5
11543	132383	130.206631852039	3
11543	132936	130.713777648815	8
11543	133074	130.826248019898	2
11543	133263	131.009109974959	7
11543	134309	131.817825356131	9
11543	135326	132.617825356131	7
11543	135863	133.017925366131	4
11543	136848	133.907067681969	4
11543	137149	134.21561739175	2
11543	137246	134.305394602907	1
11543	137373	134.417925366131	14
11543	137587	134.616640145761	3
11544	288	20.30000001	0.625
11544	424	20.50000001	0.875
11544	614	20.800395431723	0.75
11544	1020	21.207797337049	0.375
11544	1028	21.207897337049	0.75
11544	1456	21.609033629564	0.5
11544	1460	21.609757804393	0.5
11544	1464	21.611914750414	0.5
11544	1713	21.813408736735	0.75
11544	2134	22.213408736735	0.625
11544	3189	23.212072460993	-0.375
11544	3206	23.216030928367	-0.125
11544	3218	23.223036588595	-0.125
11544	4361	24.225862575643	-0.25
11544	6094	25.725862575643	-0.875
11544	6667	26.229733926699	0.375
11544	6911	26.434853199001	0.875
11544	7237	26.735675229779	0.75
11544	8528	27.837740853474	-0.375
11544	9119	28.337740853474	0.5
11544	9629	28.746227825105	0.5
11544	9695	28.786125816117	0.75
11544	10020	29.155252539099	0.625
11544	10382	29.556199898426	0.375
11544	11055	30.156199898426	0.375
11544	11459	30.560345525522	0.625
11544	11904	30.96789050249	0.625
11544	12142	31.175779506623	0.75
11544	13655	32.475779506623	-0.625
11544	14239	32.97901206088	0.5
11544	14557	33.181002943492	0.75
11544	15266	33.681002943492	0.5
11544	15417	33.783530854356	1
11544	16050	34.289712561156	0.5
11544	16397	34.590823645827	0.625
11544	17434	35.390823645827	0
11544	17537	35.502793736893	0.5
11544	17694	35.610138540789	0.875
11544	17783	35.709974315474	0.5
11544	17821	35.718691824876	-0.375
11544	17827	35.721170541353	-0.25
11544	17909	35.805727822342	0.75
11544	18027	35.914241215543	0.875
11544	18542	36.322587739245	0.75
11544	18809	36.526385455016	0.75
11544	19655	37.226385455016	0.125
11544	20481	37.83947799215	0.625
11544	22568	39.53947799215	-1.125
11544	22930	39.84324041355	0.75
11544	22960	39.857138248963	0.75
11544	23091	39.958750177106	0.875
11544	23357	40.158750177106	0.875
11544	23712	40.460546288246	0.75
11544	24036	40.766022333782	0.75
11544	24136	40.842933160179	0.625
11544	24565	41.266339139237	0.5
11544	24883	41.552115359006	0.25
11544	25146	41.77552444311	0.5
11544	25233	41.859657356236	0.75
11544	25376	41.98285848044	0.875
11544	26592	42.792039136806	0
11544	27584	43.592039136806	0.125
11544	29256	44.89582931778	-0.625
11544	29733	45.30337047919	0.5
11544	29984	45.50702289393	0.875
11544	30415	45.896711787727	0.625
11544	30430	45.910212331361	0.625
11544	30565	46.018614113941	0.875
11544	31595	46.818614113941	0.125
11544	32336	47.440402310156	0.5
11544	33572	48.421521299479	-1.375
11544	34094	48.821621309479	0.5
11544	34787	49.421621309479	0.25
11544	35183	49.728880942223	0.75
11544	36433	50.835475163007	-0.25
11544	36802	51.214533594361	-0.5
11544	37033	51.444982527877	0.375
11544	37403	51.750383455716	0.75
11544	37575	51.921745634948	0.25
11544	38318	52.459027718217	0.25
11544	38359	52.527254937184	0.375
11544	38983	53.02851784028	0.375
11544	39475	53.42851784028	0.625
11544	39702	53.560182786788	0.75
11544	40029	53.766565465153	0.875
11544	40348	54.032891677609	0.375
11544	41153	54.633235775609	0.25
11544	42134	55.443693904782	0.375
11544	42240	55.533235775609	0
11544	42444	55.742512401087	0.875
11544	43054	56.243156504571	0.375
11544	43788	56.863110547875	0.875
11544	44212	57.169523556464	0.5
11544	44527	57.469523556464	0.75
11544	44745	57.665731762237	0.875
11544	44967	57.865731762237	0.875
11544	45181	58.077057412369	0.875
11544	45261	58.16700735953	0.625
11544	45445	58.364047763884	0.75
11544	45449	58.368290004043	0.75
11544	45970	58.868390014043	0.375
11544	47756	60.468390014043	-1
11544	48479	61.068490024043	0.125
11544	48772	61.268490024043	0.875
11544	50167	62.468590034043	-0.5
11544	50531	62.768590034043	0.75
11544	50990	63.170778588449	0.625
11544	51197	63.373085199286	0.875
11544	52203	64.174557302027	0
11544	52831	64.674557302027	0.5
11544	53210	64.982918826763	0.75
11544	53478	65.192941629939	0.75
11544	54734	66.292941629939	-0.25
11544	55261	66.694549426672	0.5
11544	55573	66.9044249175	0.75
11544	56334	67.528458625628	0.125
11544	56430	67.634131630005	0.25
11544	56530	67.73407269832	0.875
11544	56558	67.771203826439	-0.25
11544	56959	68.143278003273	0.5
11544	56996	68.184142974323	0.5
11544	57083	68.23912214488	0.5
11544	57136	68.272888363296	0.375
11544	57339	68.448946557059	0.625
11544	57520	68.593386878111	0.5
11544	57575	68.653050678025	0.875
11544	57678	68.717447535213	0.875
11544	57796	68.840305346657	0.375
11544	57800	68.842421323433	0.375
11544	58020	69.044531961999	0.75
11544	58700	69.644531961999	0.375
11544	59422	70.159179741933	0.5
11544	59812	70.459279751933	0.625
11544	60194	70.759279751933	0.75
11544	60560	71.066303239627	0.75
11544	61305	71.774689427687	0.25
11544	61591	72.039163396947	0.125
11544	61596	72.039803463991	0.125
11544	62059	72.441419791378	0.5
11544	62688	73.041419791378	0.375
11544	62921	73.250300664244	0.875
11544	63110	73.456839498885	0.875
11544	64181	74.367435992862	-0.125
11544	64219	74.418205047208	0.375
11544	64714	74.809466451355	0.75
11544	64870	74.923481527129	0.5
11544	65205	75.224156285403	0.75
11544	65331	75.317116593641	0.5
11544	65347	75.320665803855	1
11544	66494	76.220665803855	0
11544	67109	76.720765813855	0.375
11544	68045	77.520765813855	0.125
11544	68279	77.738883040123	0.625
11544	68587	78.033964582581	0.5
11544	68593	78.039993191081	0.75
11544	69725	79.040093201081	-0.375
11544	70177	79.440093201081	0.5
11544	70753	79.946518663888	0.5
11544	71230	80.354931561004	0.625
11544	71563	80.643381314746	0.5
11544	71875	80.947884281962	0.625
11544	72710	81.655457540172	0.125
11544	73285	82.055557550172	0.5
11544	73786	82.455557550172	0.625
11544	74079	82.66674008115	0.875
11544	74886	83.272257105142	0.25
11544	75224	83.581036949855	0.75
11544	75579	83.882504653901	0.625
11544	76108	84.382504653901	0.375
11544	76794	84.998319816409	0.375
11544	76866	85.028750596744	0.375
11544	77398	85.499698006565	0.5
11544	77610	85.63738714774	0.25
11544	77881	85.901664865902	0.5
11544	77946	85.942252676657	0.625
11544	78796	86.647894558922	0
11544	80397	87.960143260538	0.625
11544	80761	88.260143260538	0.75
11544	81047	88.460748944926	0.875
11544	81311	88.677122029305	0.875
11544	81858	89.18520403657	0.375
11544	82148	89.388560432492	0.75
11544	83020	90.088560432492	0.25
11544	83322	90.295283438044	0.75
11544	83612	90.486599022389	0.75
11544	83625	90.49785559633	0.875
11544	84091	90.803013621123	0.625
11544	84772	91.403013621123	0.375
11544	85439	91.910483632312	0.5
11544	85678	92.115632968964	0.875
11544	85894	92.281274433331	0
11544	86050	92.381374443331	0.875
11544	86546	92.78790872396	0.625
11544	87029	93.193225028836	0.625
11544	88163	94.196870293239	-0.25
11544	88353	94.396870293239	0.875
11544	89209	95.019695861385	0.375
11544	89241	95.024754160533	0.375
11544	90012	95.628087936496	0.25
11544	90585	96.124246404695	0.75
11544	90594	96.129188493202	0.5
11544	90969	96.435888091989	0.5
11544	91714	97.035988101989	0.125
11544	92674	97.835988101989	0.125
11544	94122	98.945205788423	-0.5
11544	94800	99.545205788423	0.375
11544	95457	100.145600703166	0.25
11544	95922	100.539736597461	0.25
11544	96179	100.743614301096	0.5
11544	96193	100.751212856846	0.375
11544	96427	100.942025550366	0.625
11544	96578	101.056843516557	0.5
11544	97036	101.365787070389	0.625
11544	97600	101.765787070389	0.5
11544	97892	101.993071818934	0.5
11544	98118	102.18625709658	0.5
11544	99811	103.588880778112	-1
11544	100266	103.988880778112	0.625
11544	100576	104.295842488253	0.75
11544	101084	104.805940930602	0.375
11544	101116	104.815173980176	0.125
11544	101363	105.067615161598	0.25
11544	101536	105.21081411616	0.625
11544	101564	105.215647711056	0.625
11544	101946	105.518728828728	0.625
11544	102341	105.818728828728	0.75
11544	102893	106.326782774936	0.5
11544	103455	106.803340583572	0.25
11544	103974	107.211506827343	0.5
11544	104228	107.411506827343	0.875
11544	104492	107.625965685638	0.875
11544	105325	108.234898568429	0.375
11544	105547	108.441717992701	0.875
11544	107597	110.042328937085	-1.25
11544	108077	110.442328937085	0.5
11544	108317	110.643067190126	0.875
11544	109362	111.544270092661	0
11544	109769	111.84663282257	0.625
11544	110501	112.453523886752	0.375
11544	110819	112.699226821462	0.5
11544	110980	112.860164272513	0.625
11544	111201	113.013104023415	0.75
11544	111378	113.167623370075	0.5
11544	111646	113.373253885765	0.875
11544	112179	113.779519262622	0.5
11544	113023	114.479519262622	0.25
11544	113689	114.98422709418	0.375
11544	114917	115.88422709418	-0.25
11544	115588	116.39350816827	0.375
11544	116134	116.89350816827	0.5
11544	116358	117.100388050065	0.875
11544	116386	117.116204866104	0.875
11544	118378	118.725836989726	-1.25
11544	119235	119.425836989726	0.25
11544	119604	119.729111551514	0.75
11544	119823	119.929660895226	0.875
11544	119841	119.9355281752	0.875
11544	120226	120.235884200702	0.75
11544	120228	120.236388868232	0.75
11544	120416	120.350179961465	0.5
11544	120622	120.536850106142	0.625
11544	120634	120.541669368088	0.625
11544	120654	120.555736400456	0.875
11544	120778	120.657736379684	0.625
11544	121100	120.862266189678	0.75
11544	121201	120.940983767799	0.625
11544	121206	120.944462657147	0.625
11544	121409	121.128742641019	0.625
11544	121434	121.146816494806	0.625
11544	121471	121.17012461257	0.75
11544	121632	121.265093314219	0.25
11544	121728	121.357221513024	0.875
11544	122036	121.561073424868	0.75
11544	122595	122.061073424868	0.375
11544	123267	122.667049181585	0.375
11544	123276	122.675421639395	0.375
11544	123728	123.07614590523	0.625
11544	123752	123.083809443188	0.625
11544	123846	123.16749644005	0.625
11544	124233	123.475325646298	0.5
11544	125288	124.375325646298	0
11544	125748	124.875681664098	0.5
11544	126398	125.461461925872	0
11544	126896	125.798543197776	0.375
11544	127046	125.962775646049	0.5
11544	127182	125.999570314935	0.875
11544	127234	126.073452217742	0.25
11544	127275	126.088586771034	0.875
11544	127994	126.590666615087	0.25
11544	128248	126.790666615087	0.875
11544	128487	126.997850359777	0.875
11544	130385	128.613677648815	0.375
11544	131371	129.396718784271	0.5
11544	131971	129.896718784271	0.375
11544	132383	130.206631852039	0.625
11544	132936	130.713777648815	0
11544	133074	130.826248019898	0.75
11544	133263	131.009109974959	0.125
11544	134309	131.817825356131	-0.125
11544	135326	132.617825356131	0.125
11544	135863	133.017925366131	0.5
11544	136848	133.907067681969	0.5
11544	137149	134.21561739175	0.75
11544	137246	134.305394602907	0.875
11544	137373	134.417925366131	-0.75
11544	137587	134.616640145761	0.625
11545	288	20.30000001	0.3
11545	424	20.50000001	0.2
11545	614	20.800395431723	0.3
11545	1020	21.207797337049	0.5
11545	1028	21.207897337049	0.3
11545	1456	21.609033629564	0.4
11545	1460	21.609757804393	0.4
11545	1464	21.611914750414	0.4
11545	1713	21.813408736735	0.2
11545	2134	22.213408736735	0.4
11545	3189	23.212072460993	1.1
11545	3206	23.216030928367	1
11545	3218	23.223036588595	1
11545	4361	24.225862575643	1
11545	6094	25.725862575643	1.5
11545	6667	26.229733926699	0.5
11545	6911	26.434853199001	0.2
11545	7237	26.735675229779	0.3
11545	8528	27.837740853474	1.1
11545	9119	28.337740853474	0.5
11545	9629	28.746227825105	0.4
11545	9695	28.786125816117	0.3
11545	10020	29.155252539099	0.4
11545	10382	29.556199898426	0.4
11545	11055	30.156199898426	0.6
11545	11459	30.560345525522	0.4
11545	11904	30.96789050249	0.4
11545	12142	31.175779506623	0.2
11545	13655	32.475779506623	1.3
11545	14239	32.97901206088	0.5
11545	14557	33.181002943492	0.2
11545	15266	33.681002943492	0.5
11545	15417	33.783530854356	0.1
11545	16050	34.289712561156	0.5
11545	16397	34.590823645827	0.3
11545	17434	35.390823645827	0.8
11545	17537	35.502793736893	0.5
11545	17694	35.610138540789	0.2
11545	17783	35.709974315474	0.4
11545	17821	35.718691824876	1
11545	17827	35.721170541353	1
11545	17909	35.805727822342	0.3
11545	18027	35.914241215543	0.1
11545	18542	36.322587739245	0.3
11545	18809	36.526385455016	0.2
11545	19655	37.226385455016	0.7
11545	20481	37.83947799215	0.2
11545	22568	39.53947799215	1.7
11545	22930	39.84324041355	0.3
11545	22960	39.857138248963	0.3
11545	23091	39.958750177106	0.1
11545	23357	40.158750177106	0.2
11545	23712	40.460546288246	0.3
11545	24036	40.766022333782	0.3
11545	24136	40.842933160179	0.4
11545	24565	41.266339139237	0.5
11545	24883	41.552115359006	0.7
11545	25146	41.77552444311	0.5
11545	25233	41.859657356236	0.3
11545	25376	41.98285848044	0.2
11545	26592	42.792039136806	0.8
11545	27584	43.592039136806	0.8
11545	29256	44.89582931778	1.3
11545	29733	45.30337047919	0.4
11545	29984	45.50702289393	0.2
11545	30415	45.896711787727	0.4
11545	30430	45.910212331361	0.4
11545	30565	46.018614113941	0.1
11545	31595	46.818614113941	0.8
11545	32336	47.440402310156	0.5
11545	33572	48.421521299479	1.6
11545	34094	48.821621309479	0.4
11545	34787	49.421621309479	0.6
11545	35183	49.728880942223	0.3
11545	36433	50.835475163007	1.1
11545	36802	51.214533594361	1.3
11545	37033	51.444982527877	0.6
11545	37403	51.750383455716	0.3
11545	37575	51.921745634948	0.7
11545	38318	52.459027718217	0.7
11545	38359	52.527254937184	0.6
11545	38983	53.02851784028	0.5
11545	39475	53.42851784028	0.4
11545	39702	53.560182786788	0.2
11545	40029	53.766565465153	0.2
11545	40348	54.032891677609	0.4
11545	41153	54.633235775609	0.6
11545	42134	55.443693904782	0.5
11545	42240	55.533235775609	0.9
11545	42444	55.742512401087	0.2
11545	43054	56.243156504571	0.5
11545	43788	56.863110547875	0.2
11545	44212	57.169523556464	0.3
11545	44527	57.469523556464	0.3
11545	44745	57.665731762237	0.1
11545	44967	57.865731762237	0.2
11545	45181	58.077057412369	0.2
11545	45261	58.16700735953	0.3
11545	45445	58.364047763884	0.3
11545	45449	58.368290004043	0.2
11545	45970	58.868390014043	0.5
11545	47756	60.468390014043	1.6
11545	48479	61.068490024043	0.6
11545	48772	61.268490024043	0.2
11545	50167	62.468590034043	1.2
11545	50531	62.768590034043	0.3
11545	50990	63.170778588449	0.4
11545	51197	63.373085199286	0.2
11545	52203	64.174557302027	0.8
11545	52831	64.674557302027	0.5
11545	53210	64.982918826763	0.3
11545	53478	65.192941629939	0.2
11545	54734	66.292941629939	1.1
11545	55261	66.694549426672	0.4
11545	55573	66.9044249175	0.2
11545	56334	67.528458625628	0.6
11545	56430	67.634131630005	0.7
11545	56530	67.73407269832	0.2
11545	56558	67.771203826439	1
11545	56959	68.143278003273	0.5
11545	56996	68.184142974323	0.5