version 2
run Stability-113-20130526-18:54:42-1898
attr configname Stability
attr datetime 20130526-18:54:42
attr experiment Stability
attr inifile omnetpp.ini
attr iterationvars $0=1e-5
attr iterationvars2 "$0=1e-5, $repetition=3"
attr measurement $0=1e-5
attr network Network
attr processid 1898
attr repetition 3
attr replication #3
attr resultdir results
attr runnumber 113
attr seedset 113

vector 11057  Network.churner  inGoingSizeSig:vector  ETV
vector 10970  Network.dyn_peer[3]  lookupHopsSig:vector  ETV
vector 10971  Network.dyn_peer[3]  lookupStabilitySig:vector  ETV
vector 10972  Network.dyn_peer[3]  lookupTimeSig:vector  ETV
vector 10973  Network.dyn_peer[4]  lookupHopsSig:vector  ETV
vector 10974  Network.dyn_peer[4]  lookupStabilitySig:vector  ETV
vector 10975  Network.dyn_peer[4]  lookupTimeSig:vector  ETV
vector 10976  Network.dyn_peer[5]  lookupHopsSig:vector  ETV
vector 10977  Network.dyn_peer[5]  lookupStabilitySig:vector  ETV
vector 10978  Network.dyn_peer[5]  lookupTimeSig:vector  ETV
vector 10979  Network.dyn_peer[6]  lookupHopsSig:vector  ETV
vector 10980  Network.dyn_peer[6]  lookupStabilitySig:vector  ETV
vector 10981  Network.dyn_peer[6]  lookupTimeSig:vector  ETV
vector 11003  Network.dyn_peer[14]  lookupHopsSig:vector  ETV
vector 11004  Network.dyn_peer[14]  lookupStabilitySig:vector  ETV
vector 11005  Network.dyn_peer[14]  lookupTimeSig:vector  ETV
vector 11051  Network.dyn_peer[30]  lookupHopsSig:vector  ETV
vector 11052  Network.dyn_peer[30]  lookupStabilitySig:vector  ETV
vector 11053  Network.dyn_peer[30]  lookupTimeSig:vector  ETV
vector 11021  Network.dyn_peer[20]  lookupHopsSig:vector  ETV
vector 11022  Network.dyn_peer[20]  lookupStabilitySig:vector  ETV
vector 11023  Network.dyn_peer[20]  lookupTimeSig:vector  ETV
vector 11027  Network.dyn_peer[22]  lookupHopsSig:vector  ETV
vector 11028  Network.dyn_peer[22]  lookupStabilitySig:vector  ETV
vector 11029  Network.dyn_peer[22]  lookupTimeSig:vector  ETV
vector 11030  Network.dyn_peer[23]  lookupHopsSig:vector  ETV
vector 11031  Network.dyn_peer[23]  lookupStabilitySig:vector  ETV
vector 11032  Network.dyn_peer[23]  lookupTimeSig:vector  ETV
vector 10961  Network.dyn_peer[0]  lookupHopsSig:vector  ETV
vector 10962  Network.dyn_peer[0]  lookupStabilitySig:vector  ETV
vector 10963  Network.dyn_peer[0]  lookupTimeSig:vector  ETV
vector 10967  Network.dyn_peer[2]  lookupHopsSig:vector  ETV
vector 10968  Network.dyn_peer[2]  lookupStabilitySig:vector  ETV
vector 10969  Network.dyn_peer[2]  lookupTimeSig:vector  ETV
vector 10985  Network.dyn_peer[8]  lookupHopsSig:vector  ETV
vector 10986  Network.dyn_peer[8]  lookupStabilitySig:vector  ETV
vector 10987  Network.dyn_peer[8]  lookupTimeSig:vector  ETV
vector 11006  Network.dyn_peer[15]  lookupHopsSig:vector  ETV
vector 11007  Network.dyn_peer[15]  lookupStabilitySig:vector  ETV
vector 11008  Network.dyn_peer[15]  lookupTimeSig:vector  ETV
vector 11015  Network.dyn_peer[18]  lookupHopsSig:vector  ETV
vector 11016  Network.dyn_peer[18]  lookupStabilitySig:vector  ETV
vector 11017  Network.dyn_peer[18]  lookupTimeSig:vector  ETV
vector 11018  Network.dyn_peer[19]  lookupHopsSig:vector  ETV
vector 11019  Network.dyn_peer[19]  lookupStabilitySig:vector  ETV
vector 11020  Network.dyn_peer[19]  lookupTimeSig:vector  ETV
vector 11036  Network.dyn_peer[25]  lookupHopsSig:vector  ETV
vector 11037  Network.dyn_peer[25]  lookupStabilitySig:vector  ETV
vector 11038  Network.dyn_peer[25]  lookupTimeSig:vector  ETV
vector 11042  Network.dyn_peer[27]  lookupHopsSig:vector  ETV
vector 11043  Network.dyn_peer[27]  lookupStabilitySig:vector  ETV
vector 11044  Network.dyn_peer[27]  lookupTimeSig:vector  ETV
vector 11054  Network.dyn_peer[31]  lookupHopsSig:vector  ETV
vector 11055  Network.dyn_peer[31]  lookupStabilitySig:vector  ETV
vector 11056  Network.dyn_peer[31]  lookupTimeSig:vector  ETV
vector 10964  Network.dyn_peer[1]  lookupHopsSig:vector  ETV
vector 10965  Network.dyn_peer[1]  lookupStabilitySig:vector  ETV
vector 10966  Network.dyn_peer[1]  lookupTimeSig:vector  ETV
vector 10982  Network.dyn_peer[7]  lookupHopsSig:vector  ETV
vector 10983  Network.dyn_peer[7]  lookupStabilitySig:vector  ETV
vector 10984  Network.dyn_peer[7]  lookupTimeSig:vector  ETV
vector 10991  Network.dyn_peer[10]  lookupHopsSig:vector  ETV
vector 10992  Network.dyn_peer[10]  lookupStabilitySig:vector  ETV
vector 10993  Network.dyn_peer[10]  lookupTimeSig:vector  ETV
vector 10997  Network.dyn_peer[12]  lookupHopsSig:vector  ETV
vector 10998  Network.dyn_peer[12]  lookupStabilitySig:vector  ETV
vector 10999  Network.dyn_peer[12]  lookupTimeSig:vector  ETV
vector 11000  Network.dyn_peer[13]  lookupHopsSig:vector  ETV
vector 11001  Network.dyn_peer[13]  lookupStabilitySig:vector  ETV
vector 11002  Network.dyn_peer[13]  lookupTimeSig:vector  ETV
vector 11009  Network.dyn_peer[16]  lookupHopsSig:vector  ETV
vector 11010  Network.dyn_peer[16]  lookupStabilitySig:vector  ETV
vector 11011  Network.dyn_peer[16]  lookupTimeSig:vector  ETV
vector 11012  Network.dyn_peer[17]  lookupHopsSig:vector  ETV
vector 11013  Network.dyn_peer[17]  lookupStabilitySig:vector  ETV
vector 11014  Network.dyn_peer[17]  lookupTimeSig:vector  ETV
vector 11033  Network.dyn_peer[24]  lookupHopsSig:vector  ETV
vector 11034  Network.dyn_peer[24]  lookupStabilitySig:vector  ETV
vector 11035  Network.dyn_peer[24]  lookupTimeSig:vector  ETV
vector 11045  Network.dyn_peer[28]  lookupHopsSig:vector  ETV
vector 11046  Network.dyn_peer[28]  lookupStabilitySig:vector  ETV
vector 11047  Network.dyn_peer[28]  lookupTimeSig:vector  ETV
vector 11048  Network.dyn_peer[29]  lookupHopsSig:vector  ETV
vector 11049  Network.dyn_peer[29]  lookupStabilitySig:vector  ETV
vector 11050  Network.dyn_peer[29]  lookupTimeSig:vector  ETV
vector 10988  Network.dyn_peer[9]  lookupHopsSig:vector  ETV
vector 10989  Network.dyn_peer[9]  lookupStabilitySig:vector  ETV
vector 10990  Network.dyn_peer[9]  lookupTimeSig:vector  ETV
vector 10994  Network.dyn_peer[11]  lookupHopsSig:vector  ETV
vector 10995  Network.dyn_peer[11]  lookupStabilitySig:vector  ETV
vector 10996  Network.dyn_peer[11]  lookupTimeSig:vector  ETV
vector 11024  Network.dyn_peer[21]  lookupHopsSig:vector  ETV
vector 11025  Network.dyn_peer[21]  lookupStabilitySig:vector  ETV
vector 11026  Network.dyn_peer[21]  lookupTimeSig:vector  ETV
vector 11039  Network.dyn_peer[26]  lookupHopsSig:vector  ETV
vector 11040  Network.dyn_peer[26]  lookupStabilitySig:vector  ETV
vector 11041  Network.dyn_peer[26]  lookupTimeSig:vector  ETV
10961	195	20.20000001	2
10961	645	21.00000001	7
10961	1443	21.802032438025	8
10961	2298	22.407792342954	6
10961	2839	22.807792342954	3
10961	3526	23.412615619172	5
10961	3543	23.420360454036	5
10961	3755	23.623181422787	2
10961	3978	23.829818482665	1
10961	4054	23.918204905	5
10961	4088	23.923804035333	0
10961	4499	24.323804035333	3
10961	4831	24.631798927729	2
10961	4847	24.631898937729	0
10961	5458	25.131898937729	4
10961	6555	25.944055940457	2
10961	6802	26.134433418385	10
10961	6889	26.231506702124	6
10961	7069	26.336937252002	1
10961	7718	26.938960009066	6
10961	8810	27.738960009066	7
10961	9312	28.14029544733	3
10961	9859	28.650212379628	5
10961	9900	28.657951517828	4
10961	10297	29.052649306183	4
10961	10561	29.262176548927	6
10961	10567	29.263927644585	6
10961	10703	29.368005394108	1
10961	11560	30.168005394108	7
10961	11998	30.578845929457	3
10961	13788	31.912330804864	10
10961	14595	32.512330804864	7
10961	14864	32.712538005356	2
10961	15158	33.012538005356	2
10961	15661	33.470213585	3
10961	15755	33.520932031865	4
10961	15933	33.679686144057	1
10961	16272	33.979786154057	3
10961	17087	34.679786154057	7
10961	17430	34.996267946858	6
10961	17595	35.186941888373	4
10961	17727	35.300730152319	3
10961	17732	35.304068661095	4
10961	17840	35.397758644287	3
10961	18392	35.806544688184	4
10961	19070	36.306544688184	4
10961	19524	36.614507314766	2
10961	20060	37.124018612534	5
10961	20930	37.829774030137	6
10961	21483	38.338174957462	4
10961	22288	38.938274967462	6
10961	22561	39.138274967462	1
10961	23247	39.741901837197	6
10961	23662	40.083888185848	2
10961	23993	40.356806862962	6
10961	24858	41.059246521037	7
10961	25916	41.959246521037	10
10961	25985	41.997998709711	4
10961	26201	42.26039621235	2
10961	26301	42.30134271512	2
10961	26497	42.4720104881	2
10961	26679	42.618195267073	3
10961	26813	42.721333469678	1
10961	27040	42.921333469678	1
10961	27526	43.400765663573	4
10961	27906	43.70715183212	2
10961	28037	43.80725184212	1
10961	28293	44.00725184212	1
10961	28814	44.420164573508	3
10961	29268	44.824612592855	3
10961	29299	44.871393753844	2
10961	30703	45.98022697851	14
10961	31282	46.48022697851	4
10961	31911	47.088605104772	6
10961	32259	47.411449052716	2
10961	32263	47.412221323469	2
10961	32751	47.914116258301	4
10961	32755	47.917871153129	4
10961	33185	48.340953733312	4
10961	33774	48.84149141579	6
10961	34105	49.1540906659	0
10961	34535	49.4540906659	2
10961	35627	50.357144650129	8
10961	35954	50.668917058797	9
10961	36209	50.876425150776	3
10961	36795	51.376425150776	4
10961	37190	51.685394815917	2
10961	37885	52.187931993254	6
10961	38220	52.487931993254	2
10961	39087	53.20657846975	6
10961	39504	53.511078900041	3
10961	40705	54.611078900041	12
10961	41228	55.024496227647	3
10961	41699	55.33418880383	2
10961	42701	56.141831749318	10
10961	43462	56.841831749318	8
10961	43655	57.049090620061	1
10961	44016	57.350061950637	3
10961	44144	57.460092142957	3
10961	44557	57.759018882154	3
10961	46531	59.367620351744	17
10961	47468	60.167620351744	8
10961	48551	61.070616723553	9
10961	48994	61.47412567672	3
10961	49060	61.548863279407	9
10961	49367	61.760737738307	2
10961	49382	61.768778393862	1
10961	49649	61.96952401693	2
10961	49658	61.97308260413	2
10961	49807	62.078975759727	6
10961	49937	62.199988470273	7
10961	50648	62.704799861269	6
10961	51017	63.004799861269	2
10961	51469	63.408823561171	4
10961	51472	63.409852456295	4
10961	51714	63.611533289887	1
10961	51720	63.61421251477	1
10961	52174	64.01431252477	5
10961	53052	64.71431252477	6
10961	53097	64.755029714901	4
10961	53472	65.055350958969	3
10961	53938	65.455350958969	3
10961	54176	65.659056481731	2
10961	54515	65.967606877951	4
10961	54715	66.171114888421	2
10961	54961	66.370069471996	3
10961	55498	66.770169481996	4
10961	55941	67.170169481996	3
10961	56718	67.773893556271	5
10961	56834	67.882024361209	1
10961	58166	68.889288514074	3
10961	58294	69.006791289014	3
10961	58580	69.282024361209	13
10961	58605	69.295586381739	3
10961	58847	69.495686391739	2
10961	59062	69.695686391739	1
10961	59302	69.902680402924	1
10961	59529	70.104418604008	1
10961	59783	70.312311068458	1
10961	60184	70.620467183637	3
10961	60419	70.820467183637	1
10961	60974	71.232134747323	3
10961	61181	71.424846388671	3
10961	61441	71.631756985517	1
10961	61459	71.638351950963	0
10961	61676	71.838351950963	1
10961	62113	72.147170616798	2
10961	62192	72.223325698961	1
10961	62380	72.362026961457	1
10961	63091	72.967239338917	6
10961	64608	74.156297845233	8
10961	65843	75.065794544231	9
10961	66156	75.272063491902	1
10961	66374	75.453871564269	9
10961	66608	75.654708246176	1
10961	66917	75.874828436258	1
10961	67988	76.781965913644	9
10961	68215	76.981965913644	1
10961	69051	77.787943819439	7
10961	69397	78.095241146547	2
10961	70447	79.00467388391	9
10961	70827	79.40467388391	3
10961	71017	79.610892177519	1
10961	71300	79.821593872121	2
10961	71544	80.025428614221	1
10961	71795	80.279082545242	1
10961	72820	81.28452428904	10
10961	73320	81.68452428904	3
10961	73740	82.093175150029	3
10961	74622	82.793275160029	7
10961	75127	83.193275160029	4
10961	75364	83.42612587067	4
10961	75804	83.826732717039	6
10961	75977	84.026732717039	1
10961	76362	84.42857416102	4
10961	76918	84.935050548583	4
10961	77352	85.322361919202	1
10961	77370	85.322461929202	0
10961	77857	85.722461929202	4
10961	78028	85.831494716738	1
10961	78259	86.031494716738	1
10961	78600	86.236303839657	1
10961	79332	86.842515918702	5
10961	79909	87.342615928702	5
10961	80502	87.842615928702	5
10961	81381	88.553651841229	6
10961	81716	88.832286683951	5
10961	81978	89.034469266877	1
10961	82285	89.244342039391	2
10961	82538	89.444342039391	1
10961	83108	89.865715479943	2
10961	83242	89.937629004483	2
10961	83971	90.540142188152	5
10961	83983	90.562039188895	12
10961	84844	91.266934584896	7
10961	85194	91.566934584896	2
10961	85432	91.770629094536	2
10961	85470	91.798979653532	1
10961	85926	92.180420100846	3
10961	88023	94.086443053305	20
10961	88925	94.986443053305	8
10961	89549	95.595418353656	5
10961	90142	96.097131571972	4
10961	90659	96.506580321103	3
10961	90919	96.737081925759	4
10961	91015	96.81491921182	2
10961	91330	97.11501922182	4
10961	91618	97.41501922182	2
10961	92221	98.022023696654	5
10961	92435	98.225932412977	1
10961	92917	98.559085550656	9
10961	92981	98.626473888441	3
10961	93465	99.026959665683	3
10961	93492	99.04703492151	1
10961	94530	99.857116248706	9
10961	95754	100.957116248706	11
10961	96835	101.75148107008	5
10961	96844	101.7580054575	7
10961	97024	101.872674137619	4
10961	98050	102.679556514459	8
10961	98548	103.089605408148	3
10961	99255	103.694910134454	5
10961	99806	104.248173577906	3
10961	99995	104.452569405845	1
10961	101543	105.657269624556	12
10961	101882	105.957269624556	2
10961	102180	106.216026032728	1
10961	102207	106.25945917363	3
10961	102383	106.424715683493	1
10961	102770	106.7633590178	4
10961	102778	106.78217130347	2
10961	103354	107.270282358383	4
10961	103484	107.386355817837	5
10961	103692	107.577550727329	2
10961	104079	107.882601462585	3
10961	104418	108.182601462585	2
10961	104604	108.389862290142	1
10961	104845	108.59589860475	1
10961	105540	109.099906671508	5
10961	106324	109.699906671508	6
10961	106801	110.105120952403	3
10961	107242	110.505463894581	3
10961	107720	110.905691550616	4
10961	108003	111.205691550616	2
10961	108781	111.814870043676	6
10961	109181	112.114970053676	3
10961	110253	113.014970053676	9
10961	110350	113.088219617134	4
10961	110529	113.292898660443	1
10961	110947	113.694014159088	5
10961	112658	115.299918717156	16
10961	113248	115.801949335367	4
10961	113480	116.00498509827	1
10961	113496	116.020898664343	5
10961	114211	116.621393570535	6
10961	115456	117.721393570535	10
10961	115972	118.137605824621	4
10961	116344	118.445235789524	2
10961	116663	118.651378075304	1
10961	116910	118.852163393027	1
10961	116946	118.878604695092	10
10961	117210	119.085953951741	2
10961	117923	119.685953951741	6
10961	117965	119.710513918343	1
10961	118335	120.091439637408	3
10961	118562	120.318040900832	5
10961	118580	120.350128536831	3
10961	118868	120.599689412346	4
10961	118912	120.654448889846	3
10961	119416	121.05692339448	4
10961	120388	121.85692339448	7
10961	120812	122.183830264848	1
10961	121572	122.783930274848	7
10961	122552	123.583930274848	7
10961	123133	124.088603888884	4
10961	123611	124.392668084365	3
10961	124514	125.092668084365	7
10961	125522	125.8899251189	4
10961	125537	125.90167792988	9
10961	126371	126.507599998652	5
10961	126375	126.50837233276	5
10961	127461	127.30847234276	8
10961	129613	129.10847234276	21
10961	129721	129.184905662003	2
10961	129892	129.315231829307	1
10961	129983	129.38852237791	1
10961	130697	129.895302397382	6
10961	130909	130.095302397382	1
10961	131366	130.59945004016	4
10961	131606	130.800005138945	2
10961	132030	131.194246092939	5
10961	132238	131.414675310222	5
10961	132851	132.021758009929	7
10961	133171	132.331583544414	2
10961	133195	132.33829670719	0
10961	134086	133.03829670719	6
10961	134416	133.23839671719	2
10961	134848	133.63839671719	3
10961	135023	133.846111978756	1
10961	135150	133.946211988756	1
10961	135854	134.646211988756	6
10961	136174	134.952121542212	2
10961	136182	134.955584758553	2
10961	136455	135.255684758553	2
10961	136457	135.255751207783	2
10961	136472	135.2619328129	2
10961	136848	135.659008539056	3
10961	136855	135.663314439726	3
10961	136857	135.663423070252	3
10962	195	20.20000001	0.75
10962	645	21.00000001	0.125
10962	1443	21.802032438025	0
10962	2298	22.407792342954	0.25
10962	2839	22.807792342954	0.625
10962	3526	23.412615619172	0.375
10962	3543	23.420360454036	0.375
10962	3755	23.623181422787	0.75
10962	3978	23.829818482665	0.875
10962	4054	23.918204905	0.375
10962	4088	23.923804035333	1
10962	4499	24.323804035333	0.625
10962	4831	24.631798927729	0.75
10962	4847	24.631898937729	1
10962	5458	25.131898937729	0.5
10962	6555	25.944055940457	0.75
10962	6802	26.134433418385	-0.25
10962	6889	26.231506702124	0.25
10962	7069	26.336937252002	0.875
10962	7718	26.938960009066	0.25
10962	8810	27.738960009066	0.125
10962	9312	28.14029544733	0.625
10962	9859	28.650212379628	0.375
10962	9900	28.657951517828	0.5
10962	10297	29.052649306183	0.5
10962	10561	29.262176548927	0.25
10962	10567	29.263927644585	0.25
10962	10703	29.368005394108	0.875
10962	11560	30.168005394108	0.125
10962	11998	30.578845929457	0.625
10962	13788	31.912330804864	-0.25
10962	14595	32.512330804864	0.125
10962	14864	32.712538005356	0.75
10962	15158	33.012538005356	0.75
10962	15661	33.470213585	0.625
10962	15755	33.520932031865	0.5
10962	15933	33.679686144057	0.875
10962	16272	33.979786154057	0.625
10962	17087	34.679786154057	0.125
10962	17430	34.996267946858	0.25
10962	17595	35.186941888373	0.5
10962	17727	35.300730152319	0.625
10962	17732	35.304068661095	0.5
10962	17840	35.397758644287	0.625
10962	18392	35.806544688184	0.55555555224419
10962	19070	36.306544688184	0.5
10962	19524	36.614507314766	0.75
10962	20060	37.124018612534	0.375
10962	20930	37.829774030137	0.25
10962	21483	38.338174957462	0.5
10962	22288	38.938274967462	0.25
10962	22561	39.138274967462	0.875
10962	23247	39.741901837197	0.25
10962	23662	40.083888185848	0.75
10962	23993	40.356806862962	0.25
10962	24858	41.059246521037	0.125
10962	25916	41.959246521037	-0.25
10962	25985	41.997998709711	0.5
10962	26201	42.26039621235	0.75
10962	26301	42.30134271512	0.75
10962	26497	42.4720104881	0.75
10962	26679	42.618195267073	0.625
10962	26813	42.721333469678	0.875
10962	27040	42.921333469678	0.875
10962	27526	43.400765663573	0.5
10962	27906	43.70715183212	0.75
10962	28037	43.80725184212	0.875
10962	28293	44.00725184212	0.875
10962	28814	44.420164573508	0.625
10962	29268	44.824612592855	0.625
10962	29299	44.871393753844	0.75
10962	30703	45.98022697851	-0.75
10962	31282	46.48022697851	0.5
10962	31911	47.088605104772	0.25
10962	32259	47.411449052716	0.75
10962	32263	47.412221323469	0.75
10962	32751	47.914116258301	0.5
10962	32755	47.917871153129	0.5
10962	33185	48.340953733312	0.5
10962	33774	48.84149141579	0.25
10962	34105	49.1540906659	1
10962	34535	49.4540906659	0.75
10962	35627	50.357144650129	0
10962	35954	50.668917058797	-0.125
10962	36209	50.876425150776	0.625
10962	36795	51.376425150776	0.5
10962	37190	51.685394815917	0.75
10962	37885	52.187931993254	0.25
10962	38220	52.487931993254	0.77777777612209
10962	39087	53.20657846975	0.25
10962	39504	53.511078900041	0.625
10962	40705	54.611078900041	-0.5
10962	41228	55.024496227647	0.625
10962	41699	55.33418880383	0.75
10962	42701	56.141831749318	-0.25
10962	43462	56.841831749318	0
10962	43655	57.049090620061	0.875
10962	44016	57.350061950637	0.625
10962	44144	57.460092142957	0.625
10962	44557	57.759018882154	0.625
10962	46531	59.367620351744	-1.125
10962	47468	60.167620351744	0
10962	48551	61.070616723553	-0.125
10962	48994	61.47412567672	0.625
10962	49060	61.548863279407	-0.125
10962	49367	61.760737738307	0.75
10962	49382	61.768778393862	0.875
10962	49649	61.96952401693	0.75
10962	49658	61.97308260413	0.75
10962	49807	62.078975759727	0.25
10962	49937	62.199988470273	0.125
10962	50648	62.704799861269	0.25
10962	51017	63.004799861269	0.75
10962	51469	63.408823561171	0.5
10962	51472	63.409852456295	0.5
10962	51714	63.611533289887	0.875
10962	51720	63.61421251477	0.875
10962	52174	64.01431252477	0.375
10962	53052	64.71431252477	0.25
10962	53097	64.755029714901	0.5
10962	53472	65.055350958969	0.625
10962	53938	65.455350958969	0.625
10962	54176	65.659056481731	0.75
10962	54515	65.967606877951	0.5
10962	54715	66.171114888421	0.75
10962	54961	66.370069471996	0.625
10962	55498	66.770169481996	0.5
10962	55941	67.170169481996	0.625
10962	56718	67.773893556271	0.375
10962	56834	67.882024361209	0.875
10962	58166	68.889288514074	0.625
10962	58294	69.006791289014	0.625
10962	58580	69.282024361209	-0.625
10962	58605	69.295586381739	0.625
10962	58847	69.495686391739	0.75
10962	59062	69.695686391739	0.875
10962	59302	69.902680402924	0.875
10962	59529	70.104418604008	0.875
10962	59783	70.312311068458	0.875
10962	60184	70.620467183637	0.625
10962	60419	70.820467183637	0.875
10962	60974	71.232134747323	0.625
10962	61181	71.424846388671	0.625
10962	61441	71.631756985517	0.875
10962	61459	71.638351950963	1
10962	61676	71.838351950963	0.875
10962	62113	72.147170616798	0.75
10962	62192	72.223325698961	0.875
10962	62380	72.362026961457	0.875
10962	63091	72.967239338917	0.25
10962	64608	74.156297845233	0
10962	65843	75.065794544231	-0.125
10962	66156	75.272063491902	0.875
10962	66374	75.453871564269	-0.125
10962	66608	75.654708246176	0.875
10962	66917	75.874828436258	0.875
10962	67988	76.781965913644	-0.125
10962	68215	76.981965913644	0.875
10962	69051	77.787943819439	0.125
10962	69397	78.095241146547	0.75
10962	70447	79.00467388391	-0.125
10962	70827	79.40467388391	0.625
10962	71017	79.610892177519	0.875
10962	71300	79.821593872121	0.75
10962	71544	80.025428614221	0.875
10962	71795	80.279082545242	0.875
10962	72820	81.28452428904	-0.25
10962	73320	81.68452428904	0.625
10962	73740	82.093175150029	0.625
10962	74622	82.793275160029	0.125
10962	75127	83.193275160029	0.5
10962	75364	83.42612587067	0.5
10962	75804	83.826732717039	0.25
10962	75977	84.026732717039	0.875
10962	76362	84.42857416102	0.5
10962	76918	84.935050548583	0.5
10962	77352	85.322361919202	0.875
10962	77370	85.322461929202	1
10962	77857	85.722461929202	0.5
10962	78028	85.831494716738	0.875
10962	78259	86.031494716738	0.88888888806105
10962	78600	86.236303839657	0.875
10962	79332	86.842515918702	0.375
10962	79909	87.342615928702	0.375
10962	80502	87.842615928702	0.375
10962	81381	88.553651841229	0.25
10962	81716	88.832286683951	0.375
10962	81978	89.034469266877	0.875
10962	82285	89.244342039391	0.75
10962	82538	89.444342039391	0.875
10962	83108	89.865715479943	0.75
10962	83242	89.937629004483	0.75
10962	83971	90.540142188152	0.375
10962	83983	90.562039188895	-0.5
10962	84844	91.266934584896	0.125
10962	85194	91.566934584896	0.75
10962	85432	91.770629094536	0.75
10962	85470	91.798979653532	0.875
10962	85926	92.180420100846	0.625
10962	88023	94.086443053305	-1.5
10962	88925	94.986443053305	0
10962	89549	95.595418353656	0.375
10962	90142	96.097131571972	0.5
10962	90659	96.506580321103	0.625
10962	90919	96.737081925759	0.5
10962	91015	96.81491921182	0.75
10962	91330	97.11501922182	0.5
10962	91618	97.41501922182	0.75
10962	92221	98.022023696654	0.375
10962	92435	98.225932412977	0.875
10962	92917	98.559085550656	-0.125
10962	92981	98.626473888441	0.625
10962	93465	99.026959665683	0.625
10962	93492	99.04703492151	0.875
10962	94530	99.857116248706	-0.125
10962	95754	100.957116248706	-0.375
10962	96835	101.75148107008	0.375
10962	96844	101.7580054575	0.125
10962	97024	101.872674137619	0.5
10962	98050	102.679556514459	0
10962	98548	103.089605408148	0.625
10962	99255	103.694910134454	0.375
10962	99806	104.248173577906	0.625
10962	99995	104.452569405845	0.875
10962	101543	105.657269624556	-0.5
10962	101882	105.957269624556	0.75
10962	102180	106.216026032728	0.875
10962	102207	106.25945917363	0.625
10962	102383	106.424715683493	0.875
10962	102770	106.7633590178	0.5
10962	102778	106.78217130347	0.75
10962	103354	107.270282358383	0.5
10962	103484	107.386355817837	0.375
10962	103692	107.577550727329	0.75
10962	104079	107.882601462585	0.625
10962	104418	108.182601462585	0.75
10962	104604	108.389862290142	0.875
10962	104845	108.59589860475	0.875
10962	105540	109.099906671508	0.375
10962	106324	109.699906671508	0.25
10962	106801	110.105120952403	0.625
10962	107242	110.505463894581	0.625
10962	107720	110.905691550616	0.5
10962	108003	111.205691550616	0.75
10962	108781	111.814870043676	0.25
10962	109181	112.114970053676	0.625
10962	110253	113.014970053676	-0.125
10962	110350	113.088219617134	0.5
10962	110529	113.292898660443	0.875
10962	110947	113.694014159088	0.375
10962	112658	115.299918717156	-1
10962	113248	115.801949335367	0.5
10962	113480	116.00498509827	0.875
10962	113496	116.020898664343	0.375
10962	114211	116.621393570535	0.25
10962	115456	117.721393570535	-0.25
10962	115972	118.137605824621	0.5
10962	116344	118.445235789524	0.75
10962	116663	118.651378075304	0.875
10962	116910	118.852163393027	0.875
10962	116946	118.878604695092	-0.25
10962	117210	119.085953951741	0.75
10962	117923	119.685953951741	0.25
10962	117965	119.710513918343	0.875
10962	118335	120.091439637408	0.625
10962	118562	120.318040900832	0.375
10962	118580	120.350128536831	0.625
10962	118868	120.599689412346	0.5
10962	118912	120.654448889846	0.625
10962	119416	121.05692339448	0.5
10962	120388	121.85692339448	0.125
10962	120812	122.183830264848	0.875
10962	121572	122.783930274848	0.125
10962	122552	123.583930274848	0.125
10962	123133	124.088603888884	0.5
10962	123611	124.392668084365	0.625
10962	124514	125.092668084365	0.125
10962	125522	125.8899251189	0.5
10962	125537	125.90167792988	-0.125
10962	126371	126.507599998652	0.375
10962	126375	126.50837233276	0.375
10962	127461	127.30847234276	0
10962	129613	129.10847234276	-1.625
10962	129721	129.184905662003	0.75
10962	129892	129.315231829307	0.875
10962	129983	129.38852237791	0.875
10962	130697	129.895302397382	0.25
10962	130909	130.095302397382	0.875
10962	131366	130.59945004016	0.5
10962	131606	130.800005138945	0.75
10962	132030	131.194246092939	0.375
10962	132238	131.414675310222	0.375
10962	132851	132.021758009929	0.125
10962	133171	132.331583544414	0.75
10962	133195	132.33829670719	1
10962	134086	133.03829670719	0.25
10962	134416	133.23839671719	0.75
10962	134848	133.63839671719	0.625
10962	135023	133.846111978756	0.875
10962	135150	133.946211988756	0.875
10962	135854	134.646211988756	0.25
10962	136174	134.952121542212	0.75
10962	136182	134.955584758553	0.77777777612209
10962	136455	135.255684758553	0.75
10962	136457	135.255751207783	0.75
10962	136472	135.2619328129	0.75
10962	136848	135.659008539056	0.625
10962	136855	135.663314439726	0.625
10962	136857	135.663423070252	0.625
10963	195	20.20000001	0.2
10963	645	21.00000001	0.8
10963	1443	21.802032438025	0.8
10963	2298	22.407792342954	0.6
10963	2839	22.807792342954	0.4
10963	3526	23.412615619172	0.6
10963	3543	23.420360454036	0.6
10963	3755	23.623181422787	0.2
10963	3978	23.829818482665	0.2
10963	4054	23.918204905	0.5
10963	4088	23.923804035333	0
10963	4499	24.323804035333	0.4
10963	4831	24.631798927729	0.3
10963	4847	24.631898937729	0
10963	5458	25.131898937729	0.5
10963	6555	25.944055940457	0.3
10963	6802	26.134433418385	1
10963	6889	26.231506702124	0.7
10963	7069	26.336937252002	0.2
10963	7718	26.938960009066	0.6
10963	8810	27.738960009066	0.8
10963	9312	28.14029544733	0.4
10963	9859	28.650212379628	0.5
10963	9900	28.657951517828	0.5
10963	10297	29.052649306183	0.4
10963	10561	29.262176548927	0.6
10963	10567	29.263927644585	0.6
10963	10703	29.368005394108	0.1
10963	11560	30.168005394108	0.8
10963	11998	30.578845929457	0.4
10963	13788	31.912330804864	0.9
10963	14595	32.512330804864	0.6
10963	14864	32.712538005356	0.2
10963	15158	33.012538005356	0.3
10963	15661	33.470213585	0.3
10963	15755	33.520932031865	0.5
10963	15933	33.679686144057	0.2
10963	16272	33.979786154057	0.3
10963	17087	34.679786154057	0.7
10963	17430	34.996267946858	0.6
10963	17595	35.186941888373	0.5
10963	17727	35.300730152319	0.4
10963	17732	35.304068661095	0.5
10963	17840	35.397758644287	0.4
10963	18392	35.806544688184	0.4
10963	19070	36.306544688184	0.5
10963	19524	36.614507314766	0.3
10963	20060	37.124018612534	0.5
10963	20930	37.829774030137	0.7
10963	21483	38.338174957462	0.5
10963	22288	38.938274967462	0.6
10963	22561	39.138274967462	0.2
10963	23247	39.741901837197	0.6
10963	23662	40.083888185848	0.3
10963	23993	40.356806862962	0.6
10963	24858	41.059246521037	0.7
10963	25916	41.959246521037	0.9
10963	25985	41.997998709711	0.4
10963	26201	42.26039621235	0.3
10963	26301	42.30134271512	0.3
10963	26497	42.4720104881	0.2
10963	26679	42.618195267073	0.3
10963	26813	42.721333469678	0.1
10963	27040	42.921333469678	0.2
10963	27526	43.400765663573	0.5
10963	27906	43.70715183212	0.3
10963	28037	43.80725184212	0.1
10963	28293	44.00725184212	0.2
10963	28814	44.420164573508	0.4
10963	29268	44.824612592855	0.4
10963	29299	44.871393753844	0.3
10963	30703	45.98022697851	1.1
10963	31282	46.48022697851	0.5
10963	31911	47.088605104772	0.6
10963	32259	47.411449052716	0.3
10963	32263	47.412221323469	0.3
10963	32751	47.914116258301	0.5
10963	32755	47.917871153129	0.5
10963	33185	48.340953733312	0.5
10963	33774	48.84149141579	0.5
10963	34105	49.1540906659	0
10963	34535	49.4540906659	0.3
10963	35627	50.357144650129	0.9
10963	35954	50.668917058797	0.9
10963	36209	50.876425150776	0.2
10963	36795	51.376425150776	0.5
10963	37190	51.685394815917	0.3
10963	37885	52.187931993254	0.5
10963	38220	52.487931993254	0.3
10963	39087	53.20657846975	0.7
10963	39504	53.511078900041	0.3
10963	40705	54.611078900041	1.1
10963	41228	55.024496227647	0.4
10963	41699	55.33418880383	0.3
10963	42701	56.141831749318	0.8
10963	43462	56.841831749318	0.7
10963	43655	57.049090620061	0.2
10963	44016	57.350061950637	0.3
10963	44144	57.460092142957	0.4
10963	44557	57.759018882154	0.4
10963	46531	59.367620351744	1.6
10963	47468	60.167620351744	0.8
10963	48551	61.070616723553	0.9
10963	48994	61.47412567672	0.4
10963	49060	61.548863279407	1
10963	49367	61.760737738307	0.2
10963	49382	61.768778393862	0.2
10963	49649	61.96952401693	0.2
10963	49658	61.97308260413	0.2
10963	49807	62.078975759727	0.6
10963	49937	62.199988470273	0.7
10963	50648	62.704799861269	0.5
10963	51017	63.004799861269	0.3
10963	51469	63.408823561171	0.4
10963	51472	63.409852456295	0.4
10963	51714	63.611533289887	0.2