version 2
run Stability-126-20130526-18:55:37-1898
attr configname Stability
attr datetime 20130526-18:55:37
attr experiment Stability
attr inifile omnetpp.ini
attr iterationvars $0=1e-6
attr iterationvars2 "$0=1e-6, $repetition=6"
attr measurement $0=1e-6
attr network Network
attr processid 1898
attr repetition 6
attr replication #6
attr resultdir results
attr runnumber 126
attr seedset 126

vector 12318  Network.churner  inGoingSizeSig:vector  ETV
vector 12231  Network.dyn_peer[3]  lookupHopsSig:vector  ETV
vector 12232  Network.dyn_peer[3]  lookupStabilitySig:vector  ETV
vector 12233  Network.dyn_peer[3]  lookupTimeSig:vector  ETV
vector 12270  Network.dyn_peer[16]  lookupHopsSig:vector  ETV
vector 12271  Network.dyn_peer[16]  lookupStabilitySig:vector  ETV
vector 12272  Network.dyn_peer[16]  lookupTimeSig:vector  ETV
vector 12228  Network.dyn_peer[2]  lookupHopsSig:vector  ETV
vector 12229  Network.dyn_peer[2]  lookupStabilitySig:vector  ETV
vector 12230  Network.dyn_peer[2]  lookupTimeSig:vector  ETV
vector 12249  Network.dyn_peer[9]  lookupHopsSig:vector  ETV
vector 12250  Network.dyn_peer[9]  lookupStabilitySig:vector  ETV
vector 12251  Network.dyn_peer[9]  lookupTimeSig:vector  ETV
vector 12255  Network.dyn_peer[11]  lookupHopsSig:vector  ETV
vector 12256  Network.dyn_peer[11]  lookupStabilitySig:vector  ETV
vector 12257  Network.dyn_peer[11]  lookupTimeSig:vector  ETV
vector 12267  Network.dyn_peer[15]  lookupHopsSig:vector  ETV
vector 12268  Network.dyn_peer[15]  lookupStabilitySig:vector  ETV
vector 12269  Network.dyn_peer[15]  lookupTimeSig:vector  ETV
vector 12282  Network.dyn_peer[20]  lookupHopsSig:vector  ETV
vector 12283  Network.dyn_peer[20]  lookupStabilitySig:vector  ETV
vector 12284  Network.dyn_peer[20]  lookupTimeSig:vector  ETV
vector 12285  Network.dyn_peer[21]  lookupHopsSig:vector  ETV
vector 12286  Network.dyn_peer[21]  lookupStabilitySig:vector  ETV
vector 12287  Network.dyn_peer[21]  lookupTimeSig:vector  ETV
vector 12288  Network.dyn_peer[22]  lookupHopsSig:vector  ETV
vector 12289  Network.dyn_peer[22]  lookupStabilitySig:vector  ETV
vector 12290  Network.dyn_peer[22]  lookupTimeSig:vector  ETV
vector 12297  Network.dyn_peer[25]  lookupHopsSig:vector  ETV
vector 12298  Network.dyn_peer[25]  lookupStabilitySig:vector  ETV
vector 12299  Network.dyn_peer[25]  lookupTimeSig:vector  ETV
vector 12306  Network.dyn_peer[28]  lookupHopsSig:vector  ETV
vector 12307  Network.dyn_peer[28]  lookupStabilitySig:vector  ETV
vector 12308  Network.dyn_peer[28]  lookupTimeSig:vector  ETV
vector 12225  Network.dyn_peer[1]  lookupHopsSig:vector  ETV
vector 12226  Network.dyn_peer[1]  lookupStabilitySig:vector  ETV
vector 12227  Network.dyn_peer[1]  lookupTimeSig:vector  ETV
vector 12234  Network.dyn_peer[4]  lookupHopsSig:vector  ETV
vector 12235  Network.dyn_peer[4]  lookupStabilitySig:vector  ETV
vector 12236  Network.dyn_peer[4]  lookupTimeSig:vector  ETV
vector 12240  Network.dyn_peer[6]  lookupHopsSig:vector  ETV
vector 12241  Network.dyn_peer[6]  lookupStabilitySig:vector  ETV
vector 12242  Network.dyn_peer[6]  lookupTimeSig:vector  ETV
vector 12252  Network.dyn_peer[10]  lookupHopsSig:vector  ETV
vector 12253  Network.dyn_peer[10]  lookupStabilitySig:vector  ETV
vector 12254  Network.dyn_peer[10]  lookupTimeSig:vector  ETV
vector 12261  Network.dyn_peer[13]  lookupHopsSig:vector  ETV
vector 12262  Network.dyn_peer[13]  lookupStabilitySig:vector  ETV
vector 12263  Network.dyn_peer[13]  lookupTimeSig:vector  ETV
vector 12264  Network.dyn_peer[14]  lookupHopsSig:vector  ETV
vector 12265  Network.dyn_peer[14]  lookupStabilitySig:vector  ETV
vector 12266  Network.dyn_peer[14]  lookupTimeSig:vector  ETV
vector 12291  Network.dyn_peer[23]  lookupHopsSig:vector  ETV
vector 12292  Network.dyn_peer[23]  lookupStabilitySig:vector  ETV
vector 12293  Network.dyn_peer[23]  lookupTimeSig:vector  ETV
vector 12294  Network.dyn_peer[24]  lookupHopsSig:vector  ETV
vector 12295  Network.dyn_peer[24]  lookupStabilitySig:vector  ETV
vector 12296  Network.dyn_peer[24]  lookupTimeSig:vector  ETV
vector 12300  Network.dyn_peer[26]  lookupHopsSig:vector  ETV
vector 12301  Network.dyn_peer[26]  lookupStabilitySig:vector  ETV
vector 12302  Network.dyn_peer[26]  lookupTimeSig:vector  ETV
vector 12303  Network.dyn_peer[27]  lookupHopsSig:vector  ETV
vector 12304  Network.dyn_peer[27]  lookupStabilitySig:vector  ETV
vector 12305  Network.dyn_peer[27]  lookupTimeSig:vector  ETV
vector 12315  Network.dyn_peer[31]  lookupHopsSig:vector  ETV
vector 12316  Network.dyn_peer[31]  lookupStabilitySig:vector  ETV
vector 12317  Network.dyn_peer[31]  lookupTimeSig:vector  ETV
vector 12237  Network.dyn_peer[5]  lookupHopsSig:vector  ETV
vector 12238  Network.dyn_peer[5]  lookupStabilitySig:vector  ETV
vector 12239  Network.dyn_peer[5]  lookupTimeSig:vector  ETV
vector 12246  Network.dyn_peer[8]  lookupHopsSig:vector  ETV
vector 12247  Network.dyn_peer[8]  lookupStabilitySig:vector  ETV
vector 12248  Network.dyn_peer[8]  lookupTimeSig:vector  ETV
vector 12258  Network.dyn_peer[12]  lookupHopsSig:vector  ETV
vector 12259  Network.dyn_peer[12]  lookupStabilitySig:vector  ETV
vector 12260  Network.dyn_peer[12]  lookupTimeSig:vector  ETV
vector 12309  Network.dyn_peer[29]  lookupHopsSig:vector  ETV
vector 12310  Network.dyn_peer[29]  lookupStabilitySig:vector  ETV
vector 12311  Network.dyn_peer[29]  lookupTimeSig:vector  ETV
vector 12312  Network.dyn_peer[30]  lookupHopsSig:vector  ETV
vector 12313  Network.dyn_peer[30]  lookupStabilitySig:vector  ETV
vector 12314  Network.dyn_peer[30]  lookupTimeSig:vector  ETV
vector 12222  Network.dyn_peer[0]  lookupHopsSig:vector  ETV
vector 12223  Network.dyn_peer[0]  lookupStabilitySig:vector  ETV
vector 12224  Network.dyn_peer[0]  lookupTimeSig:vector  ETV
vector 12273  Network.dyn_peer[17]  lookupHopsSig:vector  ETV
vector 12274  Network.dyn_peer[17]  lookupStabilitySig:vector  ETV
vector 12275  Network.dyn_peer[17]  lookupTimeSig:vector  ETV
vector 12276  Network.dyn_peer[18]  lookupHopsSig:vector  ETV
vector 12277  Network.dyn_peer[18]  lookupStabilitySig:vector  ETV
vector 12278  Network.dyn_peer[18]  lookupTimeSig:vector  ETV
vector 12279  Network.dyn_peer[19]  lookupHopsSig:vector  ETV
vector 12280  Network.dyn_peer[19]  lookupStabilitySig:vector  ETV
vector 12281  Network.dyn_peer[19]  lookupTimeSig:vector  ETV
vector 12243  Network.dyn_peer[7]  lookupHopsSig:vector  ETV
vector 12244  Network.dyn_peer[7]  lookupStabilitySig:vector  ETV
vector 12245  Network.dyn_peer[7]  lookupTimeSig:vector  ETV
12222	354	20.400000001	4
12222	823	21.100000001	6
12222	1849	21.935983729701	3
12222	2384	22.335983729701	3
12222	3353	23.045675890218	7
12222	3412	23.11794583901	4
12222	3706	23.354078135329	2
12222	3886	23.524189163287	3
12222	4009	23.623182242753	3
12222	4054	23.631828770874	0
12222	4405	23.932221587876	2
12222	4972	24.418911036523	1
12222	5739	25.118911036523	7
12222	6139	25.426935496863	2
12222	6282	25.539912830543	2
12222	6384	25.644556296285	1
12222	6746	25.948626277521	3
12222	7073	26.248083327625	5
12222	7095	26.251864372921	0
12222	7885	26.878211110177	0
12222	8809	27.651969104099	3
12222	8961	27.752069105099	1
12222	9222	27.952069105099	1
12222	9602	28.25847558799	2
12222	9958	28.562220585457	2
12222	10223	28.765065496184	2
12222	10651	29.070965254529	2
12222	10828	29.177402983322	1
12222	10934	29.268861333631	6
12222	11259	29.473260213794	1
12222	11658	29.780479207774	3
12222	12353	30.380479207774	5
12222	12794	30.688942267291	2
12222	13016	30.811716064207	2
12222	13700	31.315487699008	5
12222	14087	31.615487699008	3
12222	15395	32.616477121673	10
12222	15489	32.651191896278	9
12222	15772	32.916602624852	2
12222	15803	32.928829651383	5
12222	15990	33.088900780473	2
12222	16121	33.221050215476	2
12222	16408	33.430431876576	2
12222	16447	33.438132931879	4
12222	16936	33.837743824411	5
12222	16944	33.838771273044	3
12222	17280	34.038871274044	3
12222	17993	34.538871274044	4
12222	18930	35.254593673935	4
12222	18995	35.339650711445	8
12222	19831	36.047582997245	7
12222	20537	36.647582997245	6
12222	20949	36.961294009977	3
12222	21028	37.05314915586	4
12222	21444	37.456042345693	4
12222	21662	37.656042345693	1
12222	22801	38.862701547411	13
12222	23052	39.070583568345	1
12222	23204	39.17344679909	1
12222	24917	40.67344679909	16
12222	25413	41.081682623091	3
12222	25727	41.393508088221	3
12222	26190	41.795286519753	3
12222	26248	41.868464614721	3
12222	26388	42.002415026181	1
12222	26783	42.308577938706	3
12222	27953	43.186059529388	5
12222	28520	43.686059529388	4
12222	28916	43.986159530388	3
12222	29291	44.286159530388	2
12222	29566	44.488409454546	1
12222	29928	44.73545228121	3
12222	30290	45.040006700849	3
12222	31470	46.040006700849	9
12222	31856	46.431044568216	2
12222	32393	46.917741119226	4
12222	32795	47.217741119226	2
12222	33150	47.522182653946	2
12222	33286	47.633763183341	1
12222	33309	47.639593679584	1
12222	33970	48.223160695164	2
12222	34471	48.632945567699	10
12222	34823	48.929200591261	7
12222	35149	49.229300592261	3
12222	35352	49.429300592261	1
12222	36097	50.131264270505	6
12222	36612	50.632434849853	5
12222	37558	51.457565586091	7
12222	37903	51.758034244991	2
12222	37931	51.773776891738	2
12222	38402	52.175962597459	5
12222	39426	53.089372135589	9
12222	40711	54.096374146326	10
12222	41166	54.396374146326	2
12222	41995	55.093467768099	3
12222	42293	55.296029042844	1
12222	42647	55.511680126417	6
12222	42848	55.70455908739	14
12222	42855	55.705156155356	3
12222	43006	55.812360833702	3
12222	43316	56.012868483939	4
12222	43479	56.115589247492	1
12222	44104	56.715589247492	5
12222	44534	57.116427312967	3
12222	44717	57.319549241436	1
12222	45716	58.119649242436	9
12222	47167	59.219649242436	11
12222	47495	59.537474695659	2
12222	47729	59.746639254439	2
12222	48002	60.046639254439	2
12222	48068	60.06408540402	1
12222	48783	60.665152676561	5
12222	49685	61.465152676561	7
12222	50663	62.2686098362	8
12222	51187	62.676639563707	3
12222	51648	62.984666141839	2
12222	51929	63.188058459121	2
12222	52202	63.388058459121	1
12222	53076	64.092323019444	6
12222	53124	64.146128730898	2
12222	54014	64.952522918496	7
12222	54311	65.196385367931	10
12222	54985	65.797586841974	6
12222	55428	66.197586841974	3
12222	56552	67.185069397522	8
12222	56819	67.406391550537	12
12222	56924	67.49124026199	2
12222	57161	67.709897854413	1
12222	57400	67.914931551431	4
12222	57497	67.966171726455	3
12222	57825	68.173733677216	3
12222	58543	68.674474854695	2
12222	58767	68.874474854695	2
12222	59100	69.181519645758	2
12222	59826	69.786172292577	6
12222	60510	70.293738057841	4
12222	60534	70.346053133673	3
12222	60704	70.394164924763	1
12222	60880	70.552340780113	2
12222	61106	70.700000176529	2
12222	61643	71.104475225457	5
12222	62131	71.504475225457	3
12222	62625	71.91186880435	3
12222	63075	72.312227328993	3
12222	63190	72.411060278935	3
12222	63480	72.666889952391	3
12222	63734	72.814468454604	3
12222	63740	72.816565039771	3
12222	64438	73.322208851673	5
12222	64685	73.522208851673	1
12222	64954	73.729270193925	1
12222	65363	74.036227379209	2
12222	65463	74.123809623955	2
12222	65595	74.230423199429	1
12222	66120	74.730423199429	5
12222	66417	74.940418002513	1
12222	66688	75.141105258694	3
12222	67164	75.541105258694	3
12222	67412	75.744668719882	2
12222	68170	76.444668719882	6
12222	68507	76.750532065484	2
12222	69101	77.161315555121	3
12222	69438	77.469469711699	2
12222	69560	77.571803428305	1
12222	69703	77.727223816154	1
12222	69722	77.732393171826	0
12222	70226	78.168720885688	1
12222	70579	78.470111610937	3
12222	71106	78.970111610937	4
12222	71800	79.572521644668	5
12222	71805	79.576907409938	5
12222	72471	80.077841423544	5
12222	73938	81.377841423544	12
12222	74450	81.787343606418	4
12222	75773	82.787343606418	12
12222	76176	83.094507728565	2
12222	76383	83.263229353809	4
12222	76409	83.300851396353	1
12222	76707	83.506879682488	2
12222	76854	83.606879682488	1
12222	77422	84.114363155584	4
12222	77921	84.529396923976	4
12222	78087	84.654725837223	5
12222	78182	84.754560193201	1
12222	78483	84.969306155963	2
12222	79114	85.355837166631	5
12222	79243	85.459214692564	5
12222	79248	85.459853628187	5
12222	79291	85.488474340219	5
12222	79730	85.797517286837	3
12222	80423	86.397517286837	6
12222	81073	86.908578578786	3
12222	81394	87.203110183563	8
12222	81652	87.411666514346	1
12222	82365	87.960803451983	1
12222	82412	87.995271569153	5
12222	82649	88.165877303916	2
12222	82881	88.311888694814	15
12222	83023	88.415511007726	11
12222	83040	88.418193414217	0
12222	83301	88.618193414217	1
12222	84533	89.608764761412	5
12222	85092	90.108764761412	4
12222	85774	90.67986564142	3
12222	85895	90.808880399808	6
12222	86396	91.216772100071	3
12222	86866	91.579900754024	9
12222	87350	91.989445069614	4
12222	87563	92.189445069614	1
12222	88868	93.612502068261	13
12222	88940	93.659085554555	2
12222	89359	93.964532751494	3
12222	89621	94.167229316243	1
12222	89940	94.453307958166	2
12222	90165	94.676081003732	4
12222	90259	94.765952622864	4
12222	90603	95.069395697396	3
12222	91564	95.958461123748	6
12222	91574	95.964145595602	5
12222	91589	95.970809621903	5
12222	91622	96.009101138644	5
12222	91692	96.069395697396	10
12222	91727	96.102649831675	10
12222	91794	96.169014705869	1
12222	91797	96.170252242151	1
12222	92714	96.975421316259	9
12222	93258	97.375421316259	4
12222	93740	97.784979072023	3
12222	94915	98.894793978554	11
12222	95452	99.394793978554	4
12222	95834	99.698125775385	2
12222	96031	99.801202078737	2
12222	96422	100.109999875461	2
12222	97078	100.618067067687	7
12222	97768	101.218067067687	5
12222	98493	101.727699823	4
12222	99013	102.132136325562	4
12222	99787	102.716555472404	2
12222	99819	102.732136325562	6
12222	100268	103.133412086897	4
12222	100682	103.533412086897	3
12222	100957	103.733986235708	1
12222	101213	103.936329113589	1
12222	101566	104.236429114589	3
12222	102692	105.236429114589	10
12222	103160	105.557132079438	1
12222	103507	105.840571538222	5
12222	103767	106.044924016527	1
12222	104121	106.346299807107	2
12222	104281	106.461507781269	4
12222	104554	106.669545462585	1
12222	104874	106.873596592471	2
12222	105594	107.473596592471	5
12222	106100	107.878363401081	4
12222	106723	108.282649385032	5
12222	107839	109.182649385032	8
12222	108028	109.388845531474	1
12222	108515	109.793198522357	3
12222	108518	109.793585083604	3
12222	109650	110.794034469193	10
12222	110539	111.694034469193	8
12222	111111	112.102400033865	3
12222	111378	112.307790770642	2
12222	111435	112.342531797083	4
12222	111902	112.711831267583	6
12222	112271	113.013570896568	7
12222	112274	113.013758169167	3
12222	112458	113.14367049874	7
12222	112508	113.209416164067	7
12222	112635	113.298401821974	11
12222	112662	113.305892813873	0
12222	112900	113.505892813873	1
12222	113475	114.015351456181	4
12222	113915	114.423303201266	3
12222	114038	114.523403202266	1
12222	114728	115.123403202266	6
12222	115338	115.531955848814	4
12222	115375	115.550494439331	6
12222	115388	115.553586146396	5
12222	115820	115.853686147396	3
12222	117350	117.137971512631	5
12222	117792	117.482827337108	7
12222	117824	117.543067433868	3
12222	117893	117.582927337108	3
12222	119155	118.59170911241	10
12222	119595	118.99170911241	3
12222	119609	118.99180911341	0
12222	120486	119.700665413191	5
12222	121322	120.500665413191	7
12222	121462	120.600765414191	1
12222	121807	120.900765414191	2
12222	122650	121.505297601804	6
12222	123050	121.807871817301	7
12222	123152	121.902110534819	2
12222	123397	122.109172436256	2
12222	123706	122.329763181097	2
12222	123736	122.341840233664	4
12222	123912	122.511613808997	11
12222	124970	123.317346896624	9
12222	125651	123.850910822268	3
12222	125739	123.917346896624	5
12222	125936	124.051810115117	1
12222	125964	124.072786993077	1
12222	126230	124.280580033598	2
12222	126741	124.680580033598	3
12222	127734	125.48173006082	7
12222	128749	126.290389370446	8
12222	129946	127.197928708359	9
12222	130206	127.402182965646	1
12222	130826	127.915849903781	5
12222	130836	127.917601275778	5
12222	131311	128.321276969479	3
12222	131319	128.326765833181	3
12222	131705	128.634478599302	4
12222	132533	129.334478599302	6
12222	133020	129.74435450719	3
12222	133176	129.853107541015	1
12222	133935	130.456748003603	5
12222	134197	130.649894710898	7
12222	134620	131.059635311842	3
12222	134864	131.265666856602	7
12222	135098	131.4691368161	2
12222	136446	132.53573526481	6
12222	136518	132.5691368161	11
12222	136820	132.869581126444	3
12223	354	20.400000001	0.5
12223	823	21.100000001	0.25
12223	1849	21.935983729701	0.625
12223	2384	22.335983729701	0.625
12223	3353	23.045675890218	0.125
12223	3412	23.11794583901	0.5
12223	3706	23.354078135329	0.75
12223	3886	23.524189163287	0.625
12223	4009	23.623182242753	0.625
12223	4054	23.631828770874	1
12223	4405	23.932221587876	0.75
12223	4972	24.418911036523	0.875
12223	5739	25.118911036523	0.125
12223	6139	25.426935496863	0.75
12223	6282	25.539912830543	0.75
12223	6384	25.644556296285	0.875
12223	6746	25.948626277521	0.625
12223	7073	26.248083327625	0.375
12223	7095	26.251864372921	1
12223	7885	26.878211110177	1
12223	8809	27.651969104099	0.625
12223	8961	27.752069105099	0.875
12223	9222	27.952069105099	0.875
12223	9602	28.25847558799	0.75
12223	9958	28.562220585457	0.75
12223	10223	28.765065496184	0.75
12223	10651	29.070965254529	0.75
12223	10828	29.177402983322	0.875
12223	10934	29.268861333631	0.25
12223	11259	29.473260213794	0.875
12223	11658	29.780479207774	0.625
12223	12353	30.380479207774	0.375
12223	12794	30.688942267291	0.75
12223	13016	30.811716064207	0.75
12223	13700	31.315487699008	0.375
12223	14087	31.615487699008	0.625
12223	15395	32.616477121673	-0.25
12223	15489	32.651191896278	-0.125
12223	15772	32.916602624852	0.75
12223	15803	32.928829651383	0.375
12223	15990	33.088900780473	0.75
12223	16121	33.221050215476	0.75
12223	16408	33.430431876576	0.75
12223	16447	33.438132931879	0.5
12223	16936	33.837743824411	0.375
12223	16944	33.838771273044	0.625
12223	17280	34.038871274044	0.625
12223	17993	34.538871274044	0.5
12223	18930	35.254593673935	0.5
12223	18995	35.339650711445	0
12223	19831	36.047582997245	0.125
12223	20537	36.647582997245	0.25
12223	20949	36.961294009977	0.625
12223	21028	37.05314915586	0.5
12223	21444	37.456042345693	0.5
12223	21662	37.656042345693	0.875
12223	22801	38.862701547411	-0.625
12223	23052	39.070583568345	0.875
12223	23204	39.17344679909	0.875
12223	24917	40.67344679909	-1
12223	25413	41.081682623091	0.625
12223	25727	41.393508088221	0.625
12223	26190	41.795286519753	0.625
12223	26248	41.868464614721	0.625
12223	26388	42.002415026181	0.875
12223	26783	42.308577938706	0.625
12223	27953	43.186059529388	0.375
12223	28520	43.686059529388	0.5
12223	28916	43.986159530388	0.625
12223	29291	44.286159530388	0.75
12223	29566	44.488409454546	0.875
12223	29928	44.73545228121	0.625
12223	30290	45.040006700849	0.625
12223	31470	46.040006700849	-0.125
12223	31856	46.431044568216	0.75
12223	32393	46.917741119226	0.5
12223	32795	47.217741119226	0.75
12223	33150	47.522182653946	0.75
12223	33286	47.633763183341	0.875
12223	33309	47.639593679584	0.875
12223	33970	48.223160695164	0.75
12223	34471	48.632945567699	-0.25
12223	34823	48.929200591261	0.125
12223	35149	49.229300592261	0.625
12223	35352	49.429300592261	0.875
12223	36097	50.131264270505	0.25
12223	36612	50.632434849853	0.375
12223	37558	51.457565586091	0.125
12223	37903	51.758034244991	0.75
12223	37931	51.773776891738	0.75
12223	38402	52.175962597459	0.375
12223	39426	53.089372135589	-0.125
12223	40711	54.096374146326	-0.25
12223	41166	54.396374146326	0.75
12223	41995	55.093467768099	0.625
12223	42293	55.296029042844	0.875
12223	42647	55.511680126417	0.25
12223	42848	55.70455908739	-0.75
12223	42855	55.705156155356	0.625
12223	43006	55.812360833702	0.625
12223	43316	56.012868483939	0.5
12223	43479	56.115589247492	0.875
12223	44104	56.715589247492	0.375
12223	44534	57.116427312967	0.625
12223	44717	57.319549241436	0.875
12223	45716	58.119649242436	-0.125
12223	47167	59.219649242436	-0.375
12223	47495	59.537474695659	0.75
12223	47729	59.746639254439	0.75
12223	48002	60.046639254439	0.75
12223	48068	60.06408540402	0.875
12223	48783	60.665152676561	0.375
12223	49685	61.465152676561	0.125
12223	50663	62.2686098362	0
12223	51187	62.676639563707	0.625
12223	51648	62.984666141839	0.75
12223	51929	63.188058459121	0.75
12223	52202	63.388058459121	0.875
12223	53076	64.092323019444	0.25
12223	53124	64.146128730898	0.75
12223	54014	64.952522918496	0.125
12223	54311	65.196385367931	-0.25
12223	54985	65.797586841974	0.25
12223	55428	66.197586841974	0.625
12223	56552	67.185069397522	0
12223	56819	67.406391550537	-0.5
12223	56924	67.49124026199	0.75
12223	57161	67.709897854413	0.875
12223	57400	67.914931551431	0.5
12223	57497	67.966171726455	0.625
12223	57825	68.173733677216	0.625
12223	58543	68.674474854695	0.75
12223	58767	68.874474854695	0.75
12223	59100	69.181519645758	0.75
12223	59826	69.786172292577	0.25
12223	60510	70.293738057841	0.5
12223	60534	70.346053133673	0.625
12223	60704	70.394164924763	0.875
12223	60880	70.552340780113	0.75
12223	61106	70.700000176529	0.75
12223	61643	71.104475225457	0.375
12223	62131	71.504475225457	0.625
12223	62625	71.91186880435	0.625
12223	63075	72.312227328993	0.625
12223	63190	72.411060278935	0.625
12223	63480	72.666889952391	0.625
12223	63734	72.814468454604	0.625
12223	63740	72.816565039771	0.625
12223	64438	73.322208851673	0.375
12223	64685	73.522208851673	0.875
12223	64954	73.729270193925	0.875
12223	65363	74.036227379209	0.75
12223	65463	74.123809623955	0.75
12223	65595	74.230423199429	0.875
12223	66120	74.730423199429	0.375
12223	66417	74.940418002513	0.875
12223	66688	75.141105258694	0.625
12223	67164	75.541105258694	0.625
12223	67412	75.744668719882	0.75
12223	68170	76.444668719882	0.25
12223	68507	76.750532065484	0.75
12223	69101	77.161315555121	0.625
12223	69438	77.469469711699	0.75
12223	69560	77.571803428305	0.875
12223	69703	77.727223816154	0.875
12223	69722	77.732393171826	1
12223	70226	78.168720885688	0.875
12223	70579	78.470111610937	0.625
12223	71106	78.970111610937	0.5
12223	71800	79.572521644668	0.375
12223	71805	79.576907409938	0.375
12223	72471	80.077841423544	0.375
12223	73938	81.377841423544	-0.5
12223	74450	81.787343606418	0.5
12223	75773	82.787343606418	-0.5
12223	76176	83.094507728565	0.75
12223	76383	83.263229353809	0.5
12223	76409	83.300851396353	0.875
12223	76707	83.506879682488	0.75
12223	76854	83.606879682488	0.875
12223	77422	84.114363155584	0.5
12223	77921	84.529396923976	0.5
12223	78087	84.654725837223	0.375
12223	78182	84.754560193201	0.875
12223	78483	84.969306155963	0.75
12223	79114	85.355837166631	0.375
12223	79243	85.459214692564	0.375
12223	79248	85.459853628187	0.375
12223	79291	85.488474340219	0.375
12223	79730	85.797517286837	0.625
12223	80423	86.397517286837	0.25
12223	81073	86.908578578786	0.625
12223	81394	87.203110183563	0
12223	81652	87.411666514346	0.875
12223	82365	87.960803451983	0.875
12223	82412	87.995271569153	0.375
12223	82649	88.165877303916	0.75
12223	82881	88.311888694814	-0.875
12223	83023	88.415511007726	-0.375
12223	83040	88.418193414217	1
12223	83301	88.618193414217	0.875
12223	84533	89.608764761412	0.375
12223	85092	90.108764761412	0.5
12223	85774	90.67986564142	0.625
12223	85895	90.808880399808	0.25
12223	86396	91.216772100071	0.625
12223	86866	91.579900754024	-0.125
12223	87350	91.989445069614	0.5
12223	87563	92.189445069614	0.875
12223	88868	93.612502068261	-0.625
12223	88940	93.659085554555	0.75
12223	89359	93.964532751494	0.625
12223	89621	94.167229316243	0.875
12223	89940	94.453307958166	0.75
12223	90165	94.676081003732	0.5
12223	90259	94.765952622864	0.5
12223	90603	95.069395697396	0.625
12223	91564	95.958461123748	0.25
12223	91574	95.964145595602	0.375
12223	91589	95.970809621903	0.375
12223	91622	96.009101138644	0.375
12223	91692	96.069395697396	-0.25
12223	91727	96.102649831675	-0.25
12223	91794	96.169014705869	0.875
12223	91797	96.170252242151	0.875
12223	92714	96.975421316259	-0.125
12223	93258	97.375421316259	0.5
12223	93740	97.784979072023	0.625
12223	94915	98.894793978554	-0.375
12223	95452	99.394793978554	0.5
12223	95834	99.698125775385	0.75
12223	96031	99.801202078737	0.75
12223	96422	100.109999875461	0.75
12223	97078	100.618067067687	0.125
12223	97768	101.218067067687	0.375
12223	98493	101.727699823	0.5
12223	99013	102.132136325562	0.5
12223	99787	102.716555472404	0.75
12223	99819	102.732136325562	0.25
12223	100268	103.133412086897	0.5
12223	100682	103.533412086897	0.625
12223	100957	103.733986235708	0.875
12223	101213	103.936329113589	0.875
12223	101566	104.236429114589	0.625
12223	102692	105.236429114589	-0.25
12223	103160	105.557132079438	0.875
12223	103507	105.840571538222	0.375
12223	103767	106.044924016527	0.875
12223	104121	106.346299807107	0.75
12223	104281	106.461507781269	0.5
12223	104554	106.669545462585	0.875
12223	104874	106.873596592471	0.75
12223	105594	107.473596592471	0.375
12223	106100	107.878363401081	0.5
12223	106723	108.282649385032	0.375
12223	107839	109.182649385032	0
12223	108028	109.388845531474	0.875
12223	108515	109.793198522357	0.625
12223	108518	109.793585083604	0.625
12223	109650	110.794034469193	-0.25
12223	110539	111.694034469193	0
12223	111111	112.102400033865	0.625
12223	111378	112.307790770642	0.75
12223	111435	112.342531797083	0.5
12223	111902	112.711831267583	0.25
12223	112271	113.013570896568	0.125
12223	112274	113.013758169167	0.625
12223	112458	113.14367049874	0.125
12223	112508	113.209416164067	0.125
12223	112635	113.298401821974	-0.375
12223	112662	113.305892813873	1
12223	112900	113.505892813873	0.875
12223	113475	114.015351456181	0.5
12223	113915	114.423303201266	0.625
12223	114038	114.523403202266	0.875
12223	114728	115.123403202266	0.25
12223	115338	115.531955848814	0.5
12223	115375	115.550494439331	0.25
12223	115388	115.553586146396	0.375
12223	115820	115.853686147396	0.625
12223	117350	117.137971512631	0.375
12223	117792	117.482827337108	0.125
12223	117824	117.543067433868	0.625
12223	117893	117.582927337108	0.625
12223	119155	118.59170911241	-0.25
12223	119595	118.99170911241	0.625
12223	119609	118.99180911341	1
12223	120486	119.700665413191	0.375
12223	121322	120.500665413191	0.125
12223	121462	120.600765414191	0.875
12223	121807	120.900765414191	0.75
12223	122650	121.505297601804	0.25
12223	123050	121.807871817301	0.125
12223	123152	121.902110534819	0.75
12223	123397	122.109172436256	0.75
12223	123706	122.329763181097	0.75
12223	123736	122.341840233664	0.5
12223	123912	122.511613808997	-0.375
12223	124970	123.317346896624	-0.125
12223	125651	123.850910822268	0.625
12223	125739	123.917346896624	0.375
12223	125936	124.051810115117	0.875
12223	125964	124.072786993077	0.875
12223	126230	124.280580033598	0.75
12223	126741	124.680580033598	0.625
12223	127734	125.48173006082	0.125
12223	128749	126.290389370446	0
12223	129946	127.197928708359	-0.125
12223	130206	127.402182965646	0.875
12223	130826	127.915849903781	0.375
12223	130836	127.917601275778	0.375
12223	131311	128.321276969479	0.625
12223	131319	128.326765833181	0.625
12223	131705	128.634478599302	0.5
12223	132533	129.334478599302	0.25
12223	133020	129.74435450719	0.625
12223	133176	129.853107541015	0.875
12223	133935	130.456748003603	0.375
12223	134197	130.649894710898	0.125
12223	134620	131.059635311842	0.625
12223	134864	131.265666856602	0.125
12223	135098	131.4691368161	0.75
12223	136446	132.53573526481	0.25
12223	136518	132.5691368161	-0.375
12223	136820	132.869581126444	0.625
12224	354	20.400000001	0.4
12224	823	21.100000001	0.7
12224	1849	21.935983729701	0.3
12224	2384	22.335983729701	0.4
12224	3353	23.045675890218	0.7
12224	3412	23.11794583901	0.5
12224	3706	23.354078135329	0.3
12224	3886	23.524189163287	0.4
12224	4009	23.623182242753	0.4
12224	4054	23.631828770874	0
12224	4405	23.932221587876	0.3
12224	4972	24.418911036523	0.1
12224	5739	25.118911036523	0.7
12224	6139	25.426935496863	0.3
12224	6282	25.539912830543	0.3
12224	6384	25.644556296285	0.2
12224	6746	25.948626277521	0.4
12224	7073	26.248083327625	0.6
12224	7095	26.251864372921	0
12224	7885	26.878211110177	0
12224	8809	27.651969104099	0.4
12224	8961	27.752069105099	0.1
12224	9222	27.952069105099	0.2
12224	9602	28.25847558799	0.3
12224	9958	28.562220585457	0.3
12224	10223	28.765065496184	0.3
12224	10651	29.070965254529	0.3
12224	10828	29.177402983322	0.1
12224	10934	29.268861333631	0.7
12224	11259	29.473260213794	0.2
12224	11658	29.780479207774	0.3
12224	12353	30.380479207774	0.6
12224	12794	30.688942267291	0.3
12224	13016	30.811716064207	0.3
12224	13700	31.315487699008	0.5
12224	14087	31.615487699008	0.3
12224	15395	32.616477121673	1
12224	15489	32.651191896278	1
12224	15772	32.916602624852	0.3
12224	15803	32.928829651383	0.6
12224	15990	33.088900780473	0.3
12224	16121	33.221050215476	0.3
12224	16408	33.430431876576	0.2
12224	16447	33.438132931879	0.5
12224	16936	33.837743824411	0.6
12224	16944	33.838771273044	0.4
12224	17280	34.038871274044	0.2
12224	17993	34.538871274044	0.5
12224	18930	35.254593673935	0.5
12224	18995	35.339650711445	0.8
12224	19831	36.047582997245	0.7
12224	20537	36.647582997245	0.6
12224	20949	36.961294009977	0.3
12224	21028	37.05314915586	0.4
12224	21444	37.456042345693	0.4
12224	21662	37.656042345693	0.2
12224	22801	38.862701547411	1.2
12224	23052	39.070583568345	0.2
12224	23204	39.17344679909	0.1
12224	24917	40.67344679909	1.5
12224	25413	41.081682623091	0.4
12224	25727	41.393508088221	0.3
12224	26190	41.795286519753	0.4
12224	26248	41.868464614721	0.4
12224	26388	42.002415026181	0.2
12224	26783	42.308577938706	0.3
12224	27953	43.186059529388	0.5
12224	28520	43.686059529388	0.5
12224	28916	43.986159530388	0.3
12224	29291	44.286159530388	0.3
12224	29566	44.488409454546	0.2
12224	29928	44.73545228121	0.3
12224	30290	45.040006700849	0.3
12224	31470	46.040006700849	1
12224	31856	46.431044568216	0.3
12224	32393	46.917741119226	0.4
12224	32795	47.217741119226	0.3
12224	33150	47.522182653946	0.3
12224	33286	47.633763183341	0.2
12224	33309	47.639593679584	0.1
12224	33970	48.223160695164	0.3
12224	34471	48.632945567699	1