version 2
run Stability-53-20130526-18:50:34-1898
attr configname Stability
attr datetime 20130526-18:50:34
attr experiment Stability
attr inifile omnetpp.ini
attr iterationvars $0=1e1
attr iterationvars2 "$0=1e1, $repetition=3"
attr measurement $0=1e1
attr network Network
attr processid 1898
attr repetition 3
attr replication #3
attr resultdir results
attr runnumber 53
attr seedset 53

vector 5237  Network.churner  inGoingSizeSig:vector  ETV
vector 5141  Network.dyn_peer[0]  lookupHopsSig:vector  ETV
vector 5142  Network.dyn_peer[0]  lookupStabilitySig:vector  ETV
vector 5143  Network.dyn_peer[0]  lookupTimeSig:vector  ETV
vector 5147  Network.dyn_peer[2]  lookupHopsSig:vector  ETV
vector 5148  Network.dyn_peer[2]  lookupStabilitySig:vector  ETV
vector 5149  Network.dyn_peer[2]  lookupTimeSig:vector  ETV
vector 5153  Network.dyn_peer[4]  lookupHopsSig:vector  ETV
vector 5154  Network.dyn_peer[4]  lookupStabilitySig:vector  ETV
vector 5155  Network.dyn_peer[4]  lookupTimeSig:vector  ETV
vector 5144  Network.dyn_peer[1]  lookupHopsSig:vector  ETV
vector 5145  Network.dyn_peer[1]  lookupStabilitySig:vector  ETV
vector 5146  Network.dyn_peer[1]  lookupTimeSig:vector  ETV
vector 5159  Network.dyn_peer[6]  lookupHopsSig:vector  ETV
vector 5160  Network.dyn_peer[6]  lookupStabilitySig:vector  ETV
vector 5161  Network.dyn_peer[6]  lookupTimeSig:vector  ETV
vector 5162  Network.dyn_peer[7]  lookupHopsSig:vector  ETV
vector 5163  Network.dyn_peer[7]  lookupStabilitySig:vector  ETV
vector 5164  Network.dyn_peer[7]  lookupTimeSig:vector  ETV
vector 5165  Network.dyn_peer[8]  lookupHopsSig:vector  ETV
vector 5166  Network.dyn_peer[8]  lookupStabilitySig:vector  ETV
vector 5167  Network.dyn_peer[8]  lookupTimeSig:vector  ETV
vector 5177  Network.dyn_peer[12]  lookupHopsSig:vector  ETV
vector 5178  Network.dyn_peer[12]  lookupStabilitySig:vector  ETV
vector 5179  Network.dyn_peer[12]  lookupTimeSig:vector  ETV
vector 5156  Network.dyn_peer[5]  lookupHopsSig:vector  ETV
vector 5157  Network.dyn_peer[5]  lookupStabilitySig:vector  ETV
vector 5158  Network.dyn_peer[5]  lookupTimeSig:vector  ETV
vector 5216  Network.dyn_peer[25]  lookupHopsSig:vector  ETV
vector 5217  Network.dyn_peer[25]  lookupStabilitySig:vector  ETV
vector 5218  Network.dyn_peer[25]  lookupTimeSig:vector  ETV
vector 5195  Network.dyn_peer[18]  lookupHopsSig:vector  ETV
vector 5196  Network.dyn_peer[18]  lookupStabilitySig:vector  ETV
vector 5197  Network.dyn_peer[18]  lookupTimeSig:vector  ETV
vector 5225  Network.dyn_peer[28]  lookupHopsSig:vector  ETV
vector 5226  Network.dyn_peer[28]  lookupStabilitySig:vector  ETV
vector 5227  Network.dyn_peer[28]  lookupTimeSig:vector  ETV
vector 5171  Network.dyn_peer[10]  lookupHopsSig:vector  ETV
vector 5172  Network.dyn_peer[10]  lookupStabilitySig:vector  ETV
vector 5173  Network.dyn_peer[10]  lookupTimeSig:vector  ETV
vector 5150  Network.dyn_peer[3]  lookupHopsSig:vector  ETV
vector 5151  Network.dyn_peer[3]  lookupStabilitySig:vector  ETV
vector 5152  Network.dyn_peer[3]  lookupTimeSig:vector  ETV
vector 5213  Network.dyn_peer[24]  lookupHopsSig:vector  ETV
vector 5214  Network.dyn_peer[24]  lookupStabilitySig:vector  ETV
vector 5215  Network.dyn_peer[24]  lookupTimeSig:vector  ETV
vector 5186  Network.dyn_peer[15]  lookupHopsSig:vector  ETV
vector 5187  Network.dyn_peer[15]  lookupStabilitySig:vector  ETV
vector 5188  Network.dyn_peer[15]  lookupTimeSig:vector  ETV
vector 5189  Network.dyn_peer[16]  lookupHopsSig:vector  ETV
vector 5190  Network.dyn_peer[16]  lookupStabilitySig:vector  ETV
vector 5191  Network.dyn_peer[16]  lookupTimeSig:vector  ETV
vector 5219  Network.dyn_peer[26]  lookupHopsSig:vector  ETV
vector 5220  Network.dyn_peer[26]  lookupStabilitySig:vector  ETV
vector 5221  Network.dyn_peer[26]  lookupTimeSig:vector  ETV
vector 5192  Network.dyn_peer[17]  lookupHopsSig:vector  ETV
vector 5193  Network.dyn_peer[17]  lookupStabilitySig:vector  ETV
vector 5194  Network.dyn_peer[17]  lookupTimeSig:vector  ETV
vector 5168  Network.dyn_peer[9]  lookupHopsSig:vector  ETV
vector 5169  Network.dyn_peer[9]  lookupStabilitySig:vector  ETV
vector 5170  Network.dyn_peer[9]  lookupTimeSig:vector  ETV
vector 5198  Network.dyn_peer[19]  lookupHopsSig:vector  ETV
vector 5199  Network.dyn_peer[19]  lookupStabilitySig:vector  ETV
vector 5200  Network.dyn_peer[19]  lookupTimeSig:vector  ETV
vector 5174  Network.dyn_peer[11]  lookupHopsSig:vector  ETV
vector 5175  Network.dyn_peer[11]  lookupStabilitySig:vector  ETV
vector 5176  Network.dyn_peer[11]  lookupTimeSig:vector  ETV
vector 5207  Network.dyn_peer[22]  lookupHopsSig:vector  ETV
vector 5208  Network.dyn_peer[22]  lookupStabilitySig:vector  ETV
vector 5209  Network.dyn_peer[22]  lookupTimeSig:vector  ETV
vector 5183  Network.dyn_peer[14]  lookupHopsSig:vector  ETV
vector 5184  Network.dyn_peer[14]  lookupStabilitySig:vector  ETV
vector 5185  Network.dyn_peer[14]  lookupTimeSig:vector  ETV
vector 5222  Network.dyn_peer[27]  lookupHopsSig:vector  ETV
vector 5223  Network.dyn_peer[27]  lookupStabilitySig:vector  ETV
vector 5224  Network.dyn_peer[27]  lookupTimeSig:vector  ETV
vector 5231  Network.dyn_peer[30]  lookupHopsSig:vector  ETV
vector 5232  Network.dyn_peer[30]  lookupStabilitySig:vector  ETV
vector 5233  Network.dyn_peer[30]  lookupTimeSig:vector  ETV
vector 5204  Network.dyn_peer[21]  lookupHopsSig:vector  ETV
vector 5205  Network.dyn_peer[21]  lookupStabilitySig:vector  ETV
vector 5206  Network.dyn_peer[21]  lookupTimeSig:vector  ETV
vector 5234  Network.dyn_peer[31]  lookupHopsSig:vector  ETV
vector 5235  Network.dyn_peer[31]  lookupStabilitySig:vector  ETV
vector 5236  Network.dyn_peer[31]  lookupTimeSig:vector  ETV
vector 5180  Network.dyn_peer[13]  lookupHopsSig:vector  ETV
vector 5181  Network.dyn_peer[13]  lookupStabilitySig:vector  ETV
vector 5182  Network.dyn_peer[13]  lookupTimeSig:vector  ETV
vector 5210  Network.dyn_peer[23]  lookupHopsSig:vector  ETV
vector 5211  Network.dyn_peer[23]  lookupStabilitySig:vector  ETV
vector 5212  Network.dyn_peer[23]  lookupTimeSig:vector  ETV
vector 5201  Network.dyn_peer[20]  lookupHopsSig:vector  ETV
vector 5202  Network.dyn_peer[20]  lookupStabilitySig:vector  ETV
vector 5203  Network.dyn_peer[20]  lookupTimeSig:vector  ETV
vector 5228  Network.dyn_peer[29]  lookupHopsSig:vector  ETV
vector 5229  Network.dyn_peer[29]  lookupStabilitySig:vector  ETV
vector 5230  Network.dyn_peer[29]  lookupTimeSig:vector  ETV
5141	30	20.01	0
5141	276	20.41	3
5141	562	20.913077365939	4
5141	1060	21.415656371015	4
5141	1421	21.77714915612	11
5141	1650	21.944198067359	8
5141	2672	22.654720588224	7
5141	3721	23.454720588224	7
5141	4330	24.061750591639	5
5141	4346	24.070740593844	4
5141	4961	24.580840593844	5
5141	5372	24.880840593844	2
5141	6295	25.587554487173	7
5141	6548	25.797403477843	1
5141	6552	25.798974080777	3
5141	7075	26.199044301875	3
5141	7393	26.417595971024	2
5141	7625	26.617595971024	1
5141	8028	27.024547163899	3
5141	8564	27.443703397974	4
5141	8999	27.844748219401	4
5141	9346	28.150965404985	2
5141	9885	28.656855200253	5
5141	9977	28.749848363345	6
5141	10405	29.079581699759	3
5141	10587	29.257038590869	4
5141	10985	29.569630158106	4
5141	11659	30.169630158106	5
5141	12423	30.774805428267	5
5141	12860	31.128413746802	4
5141	13538	31.676209338384	9
5141	13925	32.036073586824	9
5141	14071	32.166875401866	6
5141	14079	32.176523183474	4
5141	14955	32.7955602225	6
5141	15801	33.4955602225	9
5141	16096	33.8087382941	4
5141	16340	34.019890270464	1
5141	16684	34.322465700738	2
5141	16936	34.516369662104	1
5141	17077	34.632973361155	1
5141	17472	34.932973361155	2
5141	17763	35.237520207727	2
5141	19426	36.611027036651	6
5141	20071	37.211027036651	5
5141	20193	37.368764478603	1
5141	20787	37.913260690581	6
5141	20829	37.978266166643	5
5141	21480	38.593508881222	7
5141	21775	38.893508881222	2
5141	22347	39.299719455932	3
5141	22905	39.720223358603	6
5141	23201	39.933193146112	2
5141	23402	40.133193146112	1
5141	23777	40.430806770297	2
5141	24267	40.840906770297	5
5141	25441	41.840906770297	10
5141	26520	42.842893455582	10
5141	26832	43.1459177062	2
5141	27311	43.550257043847	3
5141	27333	43.575117517886	3
5141	27948	44.087856919829	5
5141	28606	44.587856919829	4
5141	29230	45.117525706841	4
5141	29300	45.149883934958	5
5141	29343	45.169676565019	0
5141	29705	45.469676565019	2
5141	30516	46.182918444529	5
5141	30749	46.379345275634	9
5141	31154	46.696982788058	2
5141	31941	47.407082788058	7
5141	32150	47.607082788058	1
5141	32401	47.812315687319	1
5141	32970	48.323398493801	5
5141	33775	49.123398493801	7
5141	34373	49.630485077847	7
5141	34494	49.725099015506	5
5141	34894	50.036807156284	3
5141	35002	50.13253100085	4
5141	35030	50.147738442688	1
5141	35330	50.357838442688	2
5141	36422	51.457838442688	10
5141	36697	51.764532996388	2
5141	37017	52.072702916455	2
5141	37418	52.485350113838	3
5141	37787	52.893937358181	3
5141	38056	53.107851983234	2
5141	38820	53.807851983234	6
5141	40145	54.864698968089	5
5141	40444	55.109584478209	13
5141	40506	55.173418314083	2
5141	40703	55.315430898233	3
5141	40819	55.419201120528	11
5141	40911	55.511901392679	3
5141	41234	55.827880722666	3
5141	41462	56.027880722666	2
5141	41761	56.33407840596	2
5141	42327	56.852629549006	5
5141	42583	57.096428377034	6
5141	42645	57.156687681273	2
5141	43590	57.871875162425	7
5141	44200	58.371875162425	4
5141	44583	58.681975162425	4
5141	44790	58.881975162425	2
5141	45410	59.448319995768	3
5141	46285	60.148319995768	7
5141	46996	60.667534616219	5
5141	48043	61.418421476613	4
5141	48476	61.818421476613	3
5141	49313	62.522709605148	6
5141	50093	63.229367225516	7
5141	50572	63.642808414548	6
5141	50808	63.830930555813	8
5141	51498	64.445616791805	7
5141	52212	64.967241055858	4
5141	52632	65.296953660339	2
5141	55531	67.907053660339	28
5141	56286	68.507053660339	5
5141	57158	69.177218783288	5
5141	57334	69.312225148266	8
5141	57634	69.582037970036	3
5141	59412	70.998998919749	15
5141	60453	71.798998919749	10
5141	61275	72.504260954375	6
5141	61849	72.922474952265	5
5141	62948	73.835758910843	4
5141	63291	74.135758910843	2
5141	63539	74.339778560078	1
5141	63689	74.471920864628	1
5141	63785	74.548691429024	1
5141	64030	74.776617536332	2
5141	64203	74.980190626409	1
5141	64884	75.59765628133	6
5141	65092	75.805567475082	1
5141	65518	76.210785182036	3
5141	65529	76.22770708796	2
5141	65632	76.340716646278	2
5141	65888	76.556205487755	2
5141	66131	76.756205487755	1
5141	68020	78.363854428218	15
5141	68284	78.564224459056	1
5141	68639	78.787632883404	2
5141	69074	79.089621787328	2
5141	69411	79.296928317119	1
5141	69841	79.625385863951	2
5141	69961	79.773748495146	2
5141	70400	80.103942173339	2
5141	70593	80.278654373549	5
5141	70679	80.329462764218	8
5141	71036	80.646747177738	3
5141	71749	81.246747177738	5
5141	72667	81.98090009109	4
5141	72744	82.047910347875	8
5141	72967	82.190607516317	1
5141	73101	82.299902294671	1
5141	73386	82.504595242842	1
5141	74173	83.121984128847	7
5141	74624	83.521984128847	4
5141	75514	84.169362843837	2
5141	75645	84.264130048079	7
5141	76003	84.488784776648	2
5141	76910	85.288784776648	9
5141	77276	85.561934964788	5
5141	77781	85.975806286738	4
5141	78402	86.475806286738	4
5141	78566	86.608460095087	4
5141	78804	86.819990923192	2
5141	79609	87.419990923192	5
5141	80124	87.821217776876	4
5141	80381	88.020394321975	4
5141	80792	88.423906748249	3
5141	80829	88.443855737975	5
5141	81626	89.160079502393	7
5141	82032	89.560079502393	3
5141	82194	89.67067504596	1
5141	82359	89.790366788066	3
5141	82381	89.815950134931	2
5141	82815	90.133397516011	5
5141	83145	90.433397516011	2
5141	83453	90.748822075343	2
5141	83684	91.054270375268	2
5141	84798	92.069015635465	11
5141	85267	92.469015635465	3
5141	85541	92.68364628969	2
5141	87125	93.78364628969	11
5141	87423	93.990716680372	1
5141	87750	94.228061078941	1
5141	88514	94.748648450437	5
5141	88565	94.790808196291	10
5141	88867	95.049988188556	2
5141	89064	95.198301146747	3
5141	89082	95.21928531356	2
5141	89610	95.634576129965	5
5141	90025	95.934576129965	2
5141	90273	96.141018332562	1
5141	90557	96.365151438549	1
5141	91227	96.878080500581	6
5141	92038	97.467425183261	4
5141	92076	97.478080500581	7
5141	92314	97.677321434454	1
5141	92442	97.784325396071	3
5141	92595	97.896302414423	3
5141	93159	98.315670289674	4
5141	94041	99.115670289674	7
5141	94279	99.318560636096	1
5141	94975	99.891283584625	5
5141	95588	100.410417684858	5
5141	96401	101.210417684858	7
5141	96629	101.419805399155	1
5141	96988	101.736197827058	2
5141	97223	101.936529945945	1
5141	97237	101.94087623044	1
5141	97592	102.256187375058	2
5141	97597	102.258278132043	2
5141	97716	102.361893256411	9
5141	98312	102.880227489757	6
5141	99724	104.180227489757	12
5141	100155	104.595773464773	3
5141	100573	104.99625231501	5
5141	101205	105.515062218278	5
5141	101596	105.915062218278	3
5141	101867	106.122593827438	2
5141	102562	106.619081086414	5
5141	102688	106.72842112473	5
5141	102793	106.830183522856	1
5141	103670	107.540788287598	7
5141	104191	108.040788287598	4
5141	104550	108.351884380329	2
5141	104553	108.353360594411	2
5141	105248	108.978580584656	4
5141	105672	109.378580584656	4
5141	106048	109.68475393843	3
5141	106286	109.870742635578	3
5141	106807	110.287494705554	4
5141	107587	110.887494705554	5
5141	107944	111.190977140436	2
5141	108182	111.379670180138	5
5141	108331	111.498911454054	2
5141	108339	111.503379026246	2
5141	109039	112.004483738949	4
5141	109603	112.414583738949	4
5141	110206	112.914583738949	4
5141	110623	113.219671076405	4
5141	111519	113.866191989889	8
5141	111571	113.926788634413	6
5141	111964	114.232622368203	2
5141	111970	114.234270000077	2
5141	112235	114.434628404666	12
5141	112325	114.467159520306	6
5141	112853	114.886641802498	4
5141	113196	115.186641802498	2
5141	114345	116.194233025469	10
5141	115039	116.700912264257	4
5141	115196	116.811012264257	1
5141	115779	117.311012264257	4
5141	115924	117.472729088371	4
5141	116127	117.686769025942	3
5141	116950	118.386769025942	6
5141	119416	120.507714613643	24
5141	119790	120.807714613643	2
5141	120308	121.317814613643	5
5141	120586	121.517814613643	1
5141	121078	121.91985842212	3
5141	121622	122.428533515582	4
5141	121855	122.646895277165	5
5141	122075	122.853757560092	1
5141	122210	122.931170257407	5
5141	122867	123.411148651495	8
5141	122884	123.439318524803	4
5141	122894	123.462345622298	4
5141	123085	123.601601875623	4
5141	123233	123.756344010107	10
5141	123237	123.759626364875	10
5141	123247	123.771715484063	2
5141	123256	123.774395338837	2
5141	124159	124.584495338837	8
5141	124524	124.884495338837	2
5141	126519	126.396000136892	8
5141	127182	126.996000136892	5
5141	127839	127.497016341062	4
5141	129000	128.406141026369	10
5141	129388	128.709703324821	2
5141	130149	129.28839133133	4
5141	130339	129.41121542074	1
5141	130730	129.81121542074	3
5141	130910	130.01546694765	1
5141	131366	130.423582076023	4
5141	132013	130.933682076023	5
5141	132803	131.633682076023	7
5141	133397	132.135374314144	4
5141	134594	133.148298312718	10
5141	135002	133.548298312718	3
5141	135282	133.75708636223	1
5141	135520	133.958271483971	1
5141	135787	134.166269607789	1
5141	136583	134.86676217888	6
5141	136748	134.972656457394	3
5141	136897	135.07556925109	1
5142	30	20.01	1
5142	276	20.41	0.625
5142	562	20.913077365939	0.5
5142	1060	21.415656371015	0.5
5142	1421	21.77714915612	-0.375
5142	1650	21.944198067359	0
5142	2672	22.654720588224	0.125
5142	3721	23.454720588224	0.125
5142	4330	24.061750591639	0.375
5142	4346	24.070740593844	0.5
5142	4961	24.580840593844	0.375
5142	5372	24.880840593844	0.75
5142	6295	25.587554487173	0.125
5142	6548	25.797403477843	0.875
5142	6552	25.798974080777	0.625
5142	7075	26.199044301875	0.625
5142	7393	26.417595971024	0.75
5142	7625	26.617595971024	0.875
5142	8028	27.024547163899	0.625
5142	8564	27.443703397974	0.5
5142	8999	27.844748219401	0.5
5142	9346	28.150965404985	0.75
5142	9885	28.656855200253	0.375
5142	9977	28.749848363345	0.25
5142	10405	29.079581699759	0.625
5142	10587	29.257038590869	0.5
5142	10985	29.569630158106	0.5
5142	11659	30.169630158106	0.375
5142	12423	30.774805428267	0.375
5142	12860	31.128413746802	0.5
5142	13538	31.676209338384	-0.125
5142	13925	32.036073586824	-0.125
5142	14071	32.166875401866	0.25
5142	14079	32.176523183474	0.5
5142	14955	32.7955602225	0.25
5142	15801	33.4955602225	-0.125
5142	16096	33.8087382941	0.5
5142	16340	34.019890270464	0.875
5142	16684	34.322465700738	0.75
5142	16936	34.516369662104	0.875
5142	17077	34.632973361155	0.875
5142	17472	34.932973361155	0.75
5142	17763	35.237520207727	0.75
5142	19426	36.611027036651	0.25
5142	20071	37.211027036651	0.375
5142	20193	37.368764478603	0.875
5142	20787	37.913260690581	0.25
5142	20829	37.978266166643	0.375
5142	21480	38.593508881222	0.125
5142	21775	38.893508881222	0.75
5142	22347	39.299719455932	0.625
5142	22905	39.720223358603	0.25
5142	23201	39.933193146112	0.75
5142	23402	40.133193146112	0.875
5142	23777	40.430806770297	0.75
5142	24267	40.840906770297	0.375
5142	25441	41.840906770297	-0.25
5142	26520	42.842893455582	-0.25
5142	26832	43.1459177062	0.75
5142	27311	43.550257043847	0.625
5142	27333	43.575117517886	0.625
5142	27948	44.087856919829	0.375
5142	28606	44.587856919829	0.5
5142	29230	45.117525706841	0.5
5142	29300	45.149883934958	0.375
5142	29343	45.169676565019	1
5142	29705	45.469676565019	0.75
5142	30516	46.182918444529	0.375
5142	30749	46.379345275634	-0.125
5142	31154	46.696982788058	0.75
5142	31941	47.407082788058	0.125
5142	32150	47.607082788058	0.875
5142	32401	47.812315687319	0.875
5142	32970	48.323398493801	0.375
5142	33775	49.123398493801	0.125
5142	34373	49.630485077847	0.125
5142	34494	49.725099015506	0.375
5142	34894	50.036807156284	0.625
5142	35002	50.13253100085	0.5
5142	35030	50.147738442688	0.875
5142	35330	50.357838442688	0.75
5142	36422	51.457838442688	-0.25
5142	36697	51.764532996388	0.75
5142	37017	52.072702916455	0.75
5142	37418	52.485350113838	0.625
5142	37787	52.893937358181	0.625
5142	38056	53.107851983234	0.75
5142	38820	53.807851983234	0.25
5142	40145	54.864698968089	0.375
5142	40444	55.109584478209	-0.625
5142	40506	55.173418314083	0.75
5142	40703	55.315430898233	0.625
5142	40819	55.419201120528	-0.375
5142	40911	55.511901392679	0.625
5142	41234	55.827880722666	0.625
5142	41462	56.027880722666	0.75
5142	41761	56.33407840596	0.75
5142	42327	56.852629549006	0.375
5142	42583	57.096428377034	0.25
5142	42645	57.156687681273	0.75
5142	43590	57.871875162425	0.125
5142	44200	58.371875162425	0.5
5142	44583	58.681975162425	0.5
5142	44790	58.881975162425	0.75
5142	45410	59.448319995768	0.625
5142	46285	60.148319995768	0.125
5142	46996	60.667534616219	0.375
5142	48043	61.418421476613	0.5
5142	48476	61.818421476613	0.625
5142	49313	62.522709605148	0.25
5142	50093	63.229367225516	0.125
5142	50572	63.642808414548	0.25
5142	50808	63.830930555813	0
5142	51498	64.445616791805	0.125
5142	52212	64.967241055858	0.5
5142	52632	65.296953660339	0.75
5142	55531	67.907053660339	-2.5
5142	56286	68.507053660339	0.375
5142	57158	69.177218783288	0.375
5142	57334	69.312225148266	0
5142	57634	69.582037970036	0.625
5142	59412	70.998998919749	-0.875
5142	60453	71.798998919749	-0.25
5142	61275	72.504260954375	0.25
5142	61849	72.922474952265	0.375
5142	62948	73.835758910843	0.5
5142	63291	74.135758910843	0.75
5142	63539	74.339778560078	0.875
5142	63689	74.471920864628	0.875
5142	63785	74.548691429024	0.875
5142	64030	74.776617536332	0.75
5142	64203	74.980190626409	0.875
5142	64884	75.59765628133	0.25
5142	65092	75.805567475082	0.875
5142	65518	76.210785182036	0.625
5142	65529	76.22770708796	0.75
5142	65632	76.340716646278	0.75
5142	65888	76.556205487755	0.75
5142	66131	76.756205487755	0.875
5142	68020	78.363854428218	-0.875
5142	68284	78.564224459056	0.875
5142	68639	78.787632883404	0.75
5142	69074	79.089621787328	0.75
5142	69411	79.296928317119	0.875
5142	69841	79.625385863951	0.75
5142	69961	79.773748495146	0.75
5142	70400	80.103942173339	0.75
5142	70593	80.278654373549	0.375
5142	70679	80.329462764218	0
5142	71036	80.646747177738	0.625
5142	71749	81.246747177738	0.375
5142	72667	81.98090009109	0.5
5142	72744	82.047910347875	0
5142	72967	82.190607516317	0.875
5142	73101	82.299902294671	0.875
5142	73386	82.504595242842	0.875
5142	74173	83.121984128847	0.125
5142	74624	83.521984128847	0.5
5142	75514	84.169362843837	0.75
5142	75645	84.264130048079	0.125
5142	76003	84.488784776648	0.75
5142	76910	85.288784776648	-0.125
5142	77276	85.561934964788	0.375
5142	77781	85.975806286738	0.5
5142	78402	86.475806286738	0.5
5142	78566	86.608460095087	0.5
5142	78804	86.819990923192	0.75
5142	79609	87.419990923192	0.375
5142	80124	87.821217776876	0.5
5142	80381	88.020394321975	0.5
5142	80792	88.423906748249	0.625
5142	80829	88.443855737975	0.375
5142	81626	89.160079502393	0.125
5142	82032	89.560079502393	0.625
5142	82194	89.67067504596	0.875
5142	82359	89.790366788066	0.625
5142	82381	89.815950134931	0.75
5142	82815	90.133397516011	0.375
5142	83145	90.433397516011	0.75
5142	83453	90.748822075343	0.75
5142	83684	91.054270375268	0.75
5142	84798	92.069015635465	-0.375
5142	85267	92.469015635465	0.625
5142	85541	92.68364628969	0.75
5142	87125	93.78364628969	-0.375
5142	87423	93.990716680372	0.875
5142	87750	94.228061078941	0.875
5142	88514	94.748648450437	0.375
5142	88565	94.790808196291	-0.25
5142	88867	95.049988188556	0.75
5142	89064	95.198301146747	0.625
5142	89082	95.21928531356	0.75
5142	89610	95.634576129965	0.375
5142	90025	95.934576129965	0.75
5142	90273	96.141018332562	0.875
5142	90557	96.365151438549	0.875
5142	91227	96.878080500581	0.25
5142	92038	97.467425183261	0.5
5142	92076	97.478080500581	0.125
5142	92314	97.677321434454	0.875
5142	92442	97.784325396071	0.625
5142	92595	97.896302414423	0.625
5142	93159	98.315670289674	0.5
5142	94041	99.115670289674	0.125
5142	94279	99.318560636096	0.875
5142	94975	99.891283584625	0.375
5142	95588	100.410417684858	0.375
5142	96401	101.210417684858	0.125
5142	96629	101.419805399155	0.875
5142	96988	101.736197827058	0.75
5142	97223	101.936529945945	0.875
5142	97237	101.94087623044	0.875
5142	97592	102.256187375058	0.75
5142	97597	102.258278132043	0.75
5142	97716	102.361893256411	-0.125
5142	98312	102.880227489757	0.25
5142	99724	104.180227489757	-0.5
5142	100155	104.595773464773	0.625
5142	100573	104.99625231501	0.375
5142	101205	105.515062218278	0.375
5142	101596	105.915062218278	0.625
5142	101867	106.122593827438	0.75
5142	102562	106.619081086414	0.375
5142	102688	106.72842112473	0.375
5142	102793	106.830183522856	0.875
5142	103670	107.540788287598	0.125
5142	104191	108.040788287598	0.5
5142	104550	108.351884380329	0.75
5142	104553	108.353360594411	0.75
5142	105248	108.978580584656	0.5
5142	105672	109.378580584656	0.5
5142	106048	109.68475393843	0.625
5142	106286	109.870742635578	0.625
5142	106807	110.287494705554	0.5
5142	107587	110.887494705554	0.375
5142	107944	111.190977140436	0.75
5142	108182	111.379670180138	0.375
5142	108331	111.498911454054	0.75
5142	108339	111.503379026246	0.75
5142	109039	112.004483738949	0.5
5142	109603	112.414583738949	0.5
5142	110206	112.914583738949	0.5
5142	110623	113.219671076405	0.5
5142	111519	113.866191989889	0
5142	111571	113.926788634413	0.25
5142	111964	114.232622368203	0.75
5142	111970	114.234270000077	0.75
5142	112235	114.434628404666	-0.5
5142	112325	114.467159520306	0.25
5142	112853	114.886641802498	0.5
5142	113196	115.186641802498	0.75
5142	114345	116.194233025469	-0.25
5142	115039	116.700912264257	0.5
5142	115196	116.811012264257	0.875
5142	115779	117.311012264257	0.5
5142	115924	117.472729088371	0.5
5142	116127	117.686769025942	0.625
5142	116950	118.386769025942	0.25
5142	119416	120.507714613643	-2
5142	119790	120.807714613643	0.75
5142	120308	121.317814613643	0.375
5142	120586	121.517814613643	0.875
5142	121078	121.91985842212	0.625
5142	121622	122.428533515582	0.5
5142	121855	122.646895277165	0.375
5142	122075	122.853757560092	0.875
5142	122210	122.931170257407	0.375
5142	122867	123.411148651495	0
5142	122884	123.439318524803	0.5
5142	122894	123.462345622298	0.5
5142	123085	123.601601875623	0.5
5142	123233	123.756344010107	-0.25
5142	123237	123.759626364875	-0.25
5142	123247	123.771715484063	0.75
5142	123256	123.774395338837	0.75
5142	124159	124.584495338837	0
5142	124524	124.884495338837	0.75
5142	126519	126.396000136892	0
5142	127182	126.996000136892	0.375
5142	127839	127.497016341062	0.5
5142	129000	128.406141026369	-0.25
5142	129388	128.709703324821	0.75
5142	130149	129.28839133133	0.5
5142	130339	129.41121542074	0.875
5142	130730	129.81121542074	0.625
5142	130910	130.01546694765	0.875
5142	131366	130.423582076023	0.5
5142	132013	130.933682076023	0.375
5142	132803	131.633682076023	0.125
5142	133397	132.135374314144	0.5
5142	134594	133.148298312718	-0.25
5142	135002	133.548298312718	0.625
5142	135282	133.75708636223	0.875
5142	135520	133.958271483971	0.875
5142	135787	134.166269607789	0.875
5142	136583	134.86676217888	0.25
5142	136748	134.972656457394	0.625
5142	136897	135.07556925109	0.875
5143	30	20.01	0
5143	276	20.41	0.4
5143	562	20.913077365939	0.5
5143	1060	21.415656371015	0.5
5143	1421	21.77714915612	1.2
5143	1650	21.944198067359	0.9
5143	2672	22.654720588224	0.7
5143	3721	23.454720588224	0.8
5143	4330	24.061750591639	0.6
5143	4346	24.070740593844	0.5
5143	4961	24.580840593844	0.5
5143	5372	24.880840593844	0.3
5143	6295	25.587554487173	0.7
5143	6548	25.797403477843	0.2
5143	6552	25.798974080777	0.4
5143	7075	26.199044301875	0.4
5143	7393	26.417595971024	0.2
5143	7625	26.617595971024	0.2
5143	8028	27.024547163899	0.4
5143	8564	27.443703397974	0.4
5143	8999	27.844748219401	0.4
5143	9346	28.150965404985	0.3
5143	9885	28.656855200253	0.5
5143	9977	28.749848363345	0.7
5143	10405	29.079581699759	0.4
5143	10587	29.257038590869	0.5
5143	10985	29.569630158106	0.3
5143	11659	30.169630158106	0.6
5143	12423	30.774805428267	0.6
5143	12860	31.128413746802	0.5
5143	13538	31.676209338384	0.9
5143	13925	32.036073586824	0.9
5143	14071	32.166875401866	0.7
5143	14079	32.176523183474	0.5
5143	14955	32.7955602225	0.6
5143	15801	33.4955602225	0.7
5143	16096	33.8087382941	0.3
5143	16340	34.019890270464	0.2
5143	16684	34.322465700738	0.3
5143	16936	34.516369662104	0.2
5143	17077	34.632973361155	0.1
5143	17472	34.932973361155	0.3
5143	17763	35.237520207727	0.3
5143	19426	36.611027036651	0.5
5143	20071	37.211027036651	0.6
5143	20193	37.368764478603	0.2
5143	20787	37.913260690581	0.7
5143	20829	37.978266166643	0.6
5143	21480	38.593508881222	0.6
5143	21775	38.893508881222	0.3
5143	22347	39.299719455932	0.4
5143	22905	39.720223358603	0.6
5143	23201	39.933193146112	0.2
5143	23402	40.133193146112	0.2
5143	23777	40.430806770297	0.3
5143	24267	40.840906770297	0.4
5143	25441	41.840906770297	1
5143	26520	42.842893455582	1
5143	26832	43.1459177062	0.3
5143	27311	43.550257043847	0.4
5143	27333	43.575117517886	0.4
5143	27948	44.087856919829	0.5
5143	28606	44.587856919829	0.5
5143	29230	45.117525706841	0.5
5143	29300	45.149883934958	0.6
5143	29343	45.169676565019	0
5143	29705	45.469676565019	0.3
5143	30516	46.182918444529	0.6
5143	30749	46.379345275634	0.9
5143	31154	46.696982788058	0.3
5143	31941	47.407082788058	0.7
5143	32150	47.607082788058	0.2
5143	32401	47.812315687319	0.2
5143	32970	48.323398493801	0.5
5143	33775	49.123398493801	0.8
5143	34373	49.630485077847	0.7
5143	34494	49.725099015506	0.6
5143	34894	50.036807156284	0.3
5143	35002	50.13253100085	0.5
5143	35030	50.147738442688	0.2
5143	35330	50.357838442688	0.2
5143	36422	51.457838442688	1.1
5143	36697	51.764532996388	0.3
5143	37017	52.072702916455	0.3
5143	37418	52.485350113838	0.4
5143	37787	52.893937358181	0.4
5143	38056	53.107851983234	0.2
5143	38820	53.807851983234	0.7
5143	40145	54.864698968089	0.5
5143	40444	55.109584478209	1.3
5143	40506	55.173418314083	0.3
5143	40703	55.315430898233	0.3
5143	40819	55.419201120528	1.2
5143	40911	55.511901392679	0.4
5143	41234	55.827880722666	0.3
5143	41462	56.027880722666	0.2
5143	41761	56.33407840596	0.3
5143	42327	56.852629549006	0.5
5143	42583	57.096428377034	0.7
5143	42645	57.156687681273	0.3
5143	43590	57.871875162425	0.7
5143	44200	58.371875162425	0.5
5143	44583	58.681975162425	0.3
5143	44790	58.881975162425	0.2
5143	45410	59.448319995768	0.3
5143	46285	60.148319995768	0.7
5143	46996	60.667534616219	0.5
5143	48043	61.418421476613	0.4
5143	48476	61.818421476613	0.4
5143	49313	62.522709605148	0.7
5143	50093	63.229367225516	0.7
5143	50572	63.642808414548	0.5
5143	50808	63.830930555813	0.6
5143	51498	64.445616791805	0.6
5143	52212	64.967241055858	0.4
5143	52632	65.296953660339	0.3
5143	55531	67.907053660339	2.6
5143	56286	68.507053660339	0.6
5143	57158	69.177218783288	0.6
5143	57334	69.312225148266	0.8
5143	57634	69.582037970036	0.4
5143	59412	70.998998919749	1.4
5143	60453	71.798998919749	0.8
5143	61275	72.504260954375	0.7
5143	61849	72.922474952265	0.4
5143	62948	73.835758910843	0.4
5143	63291	74.135758910843	0.3
5143	63539	74.339778560078	0.2
5143	63689	74.471920864628	0.2
5143	63785	74.548691429024	0.2
5143	64030	74.776617536332	0.3
5143	64203	74.980190626409	0.2
5143	64884	75.59765628133	0.6
5143	65092	75.805567475082	0.2
5143	65518	76.210785182036	0.4
5143	65529	76.22770708796	0.3
5143	65632	76.340716646278	0.3
5143	65888	76.556205487755	0.2
5143	66131	76.756205487755	0.2
5143	68020	78.363854428218	1.6
5143	68284	78.564224459056	0.2
5143	68639	78.787632883404	0.2
5143	69074	79.089621787328	0.3
5143	69411	79.296928317119	0.2
5143	69841	79.625385863951	0.3
5143	69961	79.773748495146	0.3
5143	70400	80.103942173339	0.3
5143	70593	80.278654373549	0.5
5143	70679	80.329462764218	0.7
5143	71036	80.646747177738	0.3
5143	71749	81.246747177738	0.6
5143	72667	81.98090009109	0.5
5143	72744	82.047910347875	0.8
5143	72967	82.190607516317	0.2
5143	73101	82.299902294671	0.2
5143	73386	82.504595242842	0.2
5143	74173	83.121984128847	0.6
5143	74624	83.521984128847	0.4
5143	75514	84.169362843837	0.3
5143	75645	84.264130048079	0.7
5143	76003	84.488784776648	0.2
5143	76910	85.288784776648	0.8
5143	77276	85.561934964788	0.6
5143	77781	85.975806286738	0.4
5143	78402	86.475806286738	0.5
5143	78566	86.608460095087	0.5