version 2
run Stability-66-20130526-18:51:28-1898
attr configname Stability
attr datetime 20130526-18:51:28
attr experiment Stability
attr inifile omnetpp.ini
attr iterationvars $0=1e0
attr iterationvars2 "$0=1e0, $repetition=6"
attr measurement $0=1e0
attr network Network
attr processid 1898
attr repetition 6
attr replication #6
attr resultdir results
attr runnumber 66
attr seedset 66

vector 6498  Network.churner  inGoingSizeSig:vector  ETV
vector 6405  Network.dyn_peer[1]  lookupHopsSig:vector  ETV
vector 6406  Network.dyn_peer[1]  lookupStabilitySig:vector  ETV
vector 6407  Network.dyn_peer[1]  lookupTimeSig:vector  ETV
vector 6447  Network.dyn_peer[15]  lookupHopsSig:vector  ETV
vector 6448  Network.dyn_peer[15]  lookupStabilitySig:vector  ETV
vector 6449  Network.dyn_peer[15]  lookupTimeSig:vector  ETV
vector 6471  Network.dyn_peer[23]  lookupHopsSig:vector  ETV
vector 6472  Network.dyn_peer[23]  lookupStabilitySig:vector  ETV
vector 6473  Network.dyn_peer[23]  lookupTimeSig:vector  ETV
vector 6492  Network.dyn_peer[30]  lookupHopsSig:vector  ETV
vector 6493  Network.dyn_peer[30]  lookupStabilitySig:vector  ETV
vector 6494  Network.dyn_peer[30]  lookupTimeSig:vector  ETV
vector 6402  Network.dyn_peer[0]  lookupHopsSig:vector  ETV
vector 6403  Network.dyn_peer[0]  lookupStabilitySig:vector  ETV
vector 6404  Network.dyn_peer[0]  lookupTimeSig:vector  ETV
vector 6438  Network.dyn_peer[12]  lookupHopsSig:vector  ETV
vector 6439  Network.dyn_peer[12]  lookupStabilitySig:vector  ETV
vector 6440  Network.dyn_peer[12]  lookupTimeSig:vector  ETV
vector 6441  Network.dyn_peer[13]  lookupHopsSig:vector  ETV
vector 6442  Network.dyn_peer[13]  lookupStabilitySig:vector  ETV
vector 6443  Network.dyn_peer[13]  lookupTimeSig:vector  ETV
vector 6444  Network.dyn_peer[14]  lookupHopsSig:vector  ETV
vector 6445  Network.dyn_peer[14]  lookupStabilitySig:vector  ETV
vector 6446  Network.dyn_peer[14]  lookupTimeSig:vector  ETV
vector 6450  Network.dyn_peer[16]  lookupHopsSig:vector  ETV
vector 6451  Network.dyn_peer[16]  lookupStabilitySig:vector  ETV
vector 6452  Network.dyn_peer[16]  lookupTimeSig:vector  ETV
vector 6465  Network.dyn_peer[21]  lookupHopsSig:vector  ETV
vector 6466  Network.dyn_peer[21]  lookupStabilitySig:vector  ETV
vector 6467  Network.dyn_peer[21]  lookupTimeSig:vector  ETV
vector 6477  Network.dyn_peer[25]  lookupHopsSig:vector  ETV
vector 6478  Network.dyn_peer[25]  lookupStabilitySig:vector  ETV
vector 6479  Network.dyn_peer[25]  lookupTimeSig:vector  ETV
vector 6489  Network.dyn_peer[29]  lookupHopsSig:vector  ETV
vector 6490  Network.dyn_peer[29]  lookupStabilitySig:vector  ETV
vector 6491  Network.dyn_peer[29]  lookupTimeSig:vector  ETV
vector 6408  Network.dyn_peer[2]  lookupHopsSig:vector  ETV
vector 6409  Network.dyn_peer[2]  lookupStabilitySig:vector  ETV
vector 6410  Network.dyn_peer[2]  lookupTimeSig:vector  ETV
vector 6411  Network.dyn_peer[3]  lookupHopsSig:vector  ETV
vector 6412  Network.dyn_peer[3]  lookupStabilitySig:vector  ETV
vector 6413  Network.dyn_peer[3]  lookupTimeSig:vector  ETV
vector 6414  Network.dyn_peer[4]  lookupHopsSig:vector  ETV
vector 6415  Network.dyn_peer[4]  lookupStabilitySig:vector  ETV
vector 6416  Network.dyn_peer[4]  lookupTimeSig:vector  ETV
vector 6417  Network.dyn_peer[5]  lookupHopsSig:vector  ETV
vector 6418  Network.dyn_peer[5]  lookupStabilitySig:vector  ETV
vector 6419  Network.dyn_peer[5]  lookupTimeSig:vector  ETV
vector 6423  Network.dyn_peer[7]  lookupHopsSig:vector  ETV
vector 6424  Network.dyn_peer[7]  lookupStabilitySig:vector  ETV
vector 6425  Network.dyn_peer[7]  lookupTimeSig:vector  ETV
vector 6432  Network.dyn_peer[10]  lookupHopsSig:vector  ETV
vector 6433  Network.dyn_peer[10]  lookupStabilitySig:vector  ETV
vector 6434  Network.dyn_peer[10]  lookupTimeSig:vector  ETV
vector 6456  Network.dyn_peer[18]  lookupHopsSig:vector  ETV
vector 6457  Network.dyn_peer[18]  lookupStabilitySig:vector  ETV
vector 6458  Network.dyn_peer[18]  lookupTimeSig:vector  ETV
vector 6459  Network.dyn_peer[19]  lookupHopsSig:vector  ETV
vector 6460  Network.dyn_peer[19]  lookupStabilitySig:vector  ETV
vector 6461  Network.dyn_peer[19]  lookupTimeSig:vector  ETV
vector 6468  Network.dyn_peer[22]  lookupHopsSig:vector  ETV
vector 6469  Network.dyn_peer[22]  lookupStabilitySig:vector  ETV
vector 6470  Network.dyn_peer[22]  lookupTimeSig:vector  ETV
vector 6483  Network.dyn_peer[27]  lookupHopsSig:vector  ETV
vector 6484  Network.dyn_peer[27]  lookupStabilitySig:vector  ETV
vector 6485  Network.dyn_peer[27]  lookupTimeSig:vector  ETV
vector 6495  Network.dyn_peer[31]  lookupHopsSig:vector  ETV
vector 6496  Network.dyn_peer[31]  lookupStabilitySig:vector  ETV
vector 6497  Network.dyn_peer[31]  lookupTimeSig:vector  ETV
vector 6426  Network.dyn_peer[8]  lookupHopsSig:vector  ETV
vector 6427  Network.dyn_peer[8]  lookupStabilitySig:vector  ETV
vector 6428  Network.dyn_peer[8]  lookupTimeSig:vector  ETV
vector 6429  Network.dyn_peer[9]  lookupHopsSig:vector  ETV
vector 6430  Network.dyn_peer[9]  lookupStabilitySig:vector  ETV
vector 6431  Network.dyn_peer[9]  lookupTimeSig:vector  ETV
vector 6435  Network.dyn_peer[11]  lookupHopsSig:vector  ETV
vector 6436  Network.dyn_peer[11]  lookupStabilitySig:vector  ETV
vector 6437  Network.dyn_peer[11]  lookupTimeSig:vector  ETV
vector 6474  Network.dyn_peer[24]  lookupHopsSig:vector  ETV
vector 6475  Network.dyn_peer[24]  lookupStabilitySig:vector  ETV
vector 6476  Network.dyn_peer[24]  lookupTimeSig:vector  ETV
vector 6486  Network.dyn_peer[28]  lookupHopsSig:vector  ETV
vector 6487  Network.dyn_peer[28]  lookupStabilitySig:vector  ETV
vector 6488  Network.dyn_peer[28]  lookupTimeSig:vector  ETV
vector 6462  Network.dyn_peer[20]  lookupHopsSig:vector  ETV
vector 6463  Network.dyn_peer[20]  lookupStabilitySig:vector  ETV
vector 6464  Network.dyn_peer[20]  lookupTimeSig:vector  ETV
vector 6480  Network.dyn_peer[26]  lookupHopsSig:vector  ETV
vector 6481  Network.dyn_peer[26]  lookupStabilitySig:vector  ETV
vector 6482  Network.dyn_peer[26]  lookupTimeSig:vector  ETV
vector 6453  Network.dyn_peer[17]  lookupHopsSig:vector  ETV
vector 6454  Network.dyn_peer[17]  lookupStabilitySig:vector  ETV
vector 6455  Network.dyn_peer[17]  lookupTimeSig:vector  ETV
vector 6420  Network.dyn_peer[6]  lookupHopsSig:vector  ETV
vector 6421  Network.dyn_peer[6]  lookupStabilitySig:vector  ETV
vector 6422  Network.dyn_peer[6]  lookupTimeSig:vector  ETV
6402	142	20.101	1
6402	558	20.801	6
6402	1525	21.808048170193	12
6402	1863	22.145658817342	1
6402	2037	22.308048170193	5
6402	2325	22.551595781654	3
6402	2706	22.931396291123	5
6402	3460	23.63930194049	8
6402	4013	24.13930194049	4
6402	4382	24.448363268979	2
6402	4760	24.76005500132	4
6402	4950	24.957317074588	5
6402	5316	25.266475336176	4
6402	5513	25.463031977156	4
6402	5785	25.766355921313	2
6402	5800	25.769203557652	6
6402	6207	26.170303557652	4
6402	7256	27.070303557652	10
6402	7610	27.383119535819	3
6402	8581	28.290861085225	8
6402	9046	28.691961085225	4
6402	10062	29.591961085225	9
6402	10489	29.898190078772	4
6402	11289	30.513567453679	6
6402	12195	31.216836426232	7
6402	13083	31.920923076178	6
6402	13095	31.932368324362	6
6402	13463	32.231801914955	2
6402	13468	32.236237881211	2
6402	13528	32.302169028999	2
6402	14097	32.712940431397	4
6402	14394	32.912940431397	1
6402	14823	33.222861913364	2
6402	15392	33.721885344335	2
6402	15632	33.923018770161	1
6402	15857	34.13416627504	1
6402	16805	34.885050455188	7
6402	18034	35.985050455188	11
6402	18877	36.888461243569	8
6402	19760	37.798752649016	9
6402	20002	38.003569850705	2
6402	20207	38.203569850705	1
6402	20686	38.609502096632	3
6402	20815	38.735337066604	3
6402	20936	38.836437066604	1
6402	21393	39.236437066604	3
6402	21745	39.565261929605	3
6402	22005	39.779099699431	5
6402	22904	40.487023111049	8
6402	23777	41.187023111049	7
6402	24102	41.496236232282	2
6402	24552	41.908321053197	3
6402	24574	41.917484667619	1
6402	24812	42.119234617216	2
6402	25992	43.019234617216	10
6402	26340	43.327690434324	2
6402	27515	44.337515748616	10
6402	27823	44.53550053956	7
6402	27891	44.579326565972	1
6402	28021	44.641393585433	3
6402	28142	44.747609254944	1
6402	28988	45.447609254944	8
6402	29785	46.158522686277	7
6402	30537	46.858522686277	7
6402	30745	47.063368133414	1
6402	30905	47.264316327192	1
6402	31410	47.671255683611	4
6402	31620	47.871255683611	2
6402	32250	48.3698746899	3
6402	33032	49.0709746899	8
6402	33429	49.37139353815	2
6402	33851	49.703655746238	3
6402	33872	49.710361164268	2
6402	34151	49.911461164268	3
6402	34628	50.302066518308	1
6402	35452	51.002066518308	6
6402	35799	51.32100431434	2
6402	36425	51.825658487711	5
6402	36441	51.835980025051	2
6402	36503	51.920425346268	6
6402	37059	52.42304046518	7
6402	37683	52.92304046518	4
6402	38717	53.826286906167	9
6402	39699	54.797915492235	13
6402	39743	54.832176220624	11
6402	39905	55.006483626804	9
6402	40047	55.136910519504	2
6402	40146	55.205533958939	3
6402	40429	55.41342111471	3
6402	40439	55.416071883622	3
6402	40984	55.81857054644	5
6402	41239	56.01857054644	2
6402	41475	56.220722016459	1
6402	42299	56.921822016459	7
6402	42738	57.321822016459	3
6402	43021	57.531647145169	1
6402	44573	58.732747145169	14
6402	45831	59.776155942573	4
6402	47171	61.076155942573	12
6402	47364	61.282725407967	1
6402	48168	61.891975856554	6
6402	48951	62.591975856554	6
6402	49087	62.702969527724	3
6402	49531	63.109861233724	4
6402	49983	63.509861233724	3
6402	50503	63.915476597045	3
6402	50773	64.119139101017	3
6402	51257	64.50285950122	3
6402	51414	64.622882373709	6
6402	52017	65.023982373709	4
6402	52888	65.723982373709	6
6402	53135	65.926103630374	6
6402	53548	66.331028741959	3
6402	53845	66.608560482751	2
6402	53885	66.625241323596	8
6402	54244	66.933996369903	3
6402	54763	67.333996369903	4
6402	55005	67.542624813977	2
6402	56176	68.442624813977	8
6402	56619	68.848614311653	3
6402	56650	68.859427212081	0
6402	57703	69.759427212081	8
6402	58073	70.06325610528	2
6402	58474	70.410977438307	2
6402	58555	70.466872607245	2
6402	58988	70.87488807838	3
6402	59910	71.57598807838	7
6402	60378	71.97598807838	3
6402	60649	72.30436815268	4
6402	60811	72.476656321244	5
6402	60883	72.564928705289	4
6402	60950	72.606390592778	2
6402	61392	73.013888430583	4
6402	61765	73.313888430583	2
6402	61986	73.517891908801	1
6402	62399	73.92895005396	4
6402	63413	74.82895005396	10
6402	64005	75.336850456571	4
6402	64284	75.541160336131	1
6402	64290	75.553871051212	1
6402	64597	75.843872661023	3
6402	64712	75.946043786766	1
6402	65400	76.514678221313	3
6402	65623	76.646043786766	8
6402	65766	76.826150892383	2
6402	66232	77.234704560116	4
6402	66961	77.834704560116	5
6402	67484	78.243882631852	3
6402	67760	78.44931762836	1
6402	68442	78.953949343806	5
6402	68870	79.353949343806	3
6402	69725	80.162799928804	7
6402	70366	80.768834653451	5
6402	71299	81.577448500906	9
6402	71905	82.077448500906	4
6402	72225	82.386268762015	2
6402	72322	82.481007716114	2
6402	72728	82.788877261462	3
6402	73527	83.388877261462	6
6402	73919	83.798867780835	3
6402	74424	84.313844292552	4
6402	74744	84.519885385152	1
6402	75687	85.223126178635	8
6402	75982	85.423126178635	1
6402	76882	86.127667705621	6
6402	77812	86.83363489456	6
6402	77921	86.966218816999	8
6402	77979	87.037401867336	1
6402	78218	87.247271348677	1
6402	78277	87.275950348498	1
6402	78668	87.60158631847	2
6402	78864	87.778753324729	2
6402	79077	87.95518490972	6
6402	79496	88.256664625279	3
6402	79924	88.561922968291	2
6402	80997	89.431260677453	1
6402	81749	90.1694194553	4
6402	82346	90.7694194553	5
6402	82719	91.076381111996	2
6402	83065	91.383127792858	2
6402	83090	91.397664483079	2
6402	84274	92.306790096697	10
6402	84671	92.606790096697	2
6402	85398	93.210397974555	6
6402	85780	93.511497974555	3
6402	86272	93.911497974555	3
6402	86550	94.119250816442	1
6402	86956	94.420350816442	3
6402	87203	94.620350816442	1
6402	87803	95.032091545509	4
6402	88117	95.332091545509	2
6402	89065	96.137469721676	7
6402	89469	96.538569721676	5
6402	89925	96.938569721676	3
6402	90168	97.146916461909	1
6402	90545	97.45684335904	2
6402	91210	98.154310767531	10
6402	91251	98.188046581359	2
6402	92014	98.893840749752	7
6402	92631	99.393840749752	5
6402	93201	99.904403009114	5
6402	94044	100.615765693352	6
6402	94499	101.014108489853	4
6402	94862	101.313405943161	2
6402	94882	101.332193976825	1
6402	94890	101.334566763594	6
6402	94995	101.418714090763	3
6402	95024	101.421365394051	0
6402	95768	102.121365394051	6
6402	97324	103.524066072701	14
6402	97870	104.025308242522	5
6402	98230	104.326408242522	3
6402	99201	105.145863638923	3
6402	100526	106.145863638923	10
6402	101630	107.122776500275	5
6402	102021	107.453691044638	13
6402	102450	107.827707928539	6
6402	102610	107.982455002207	3
6402	102743	108.156679680442	6
6402	102787	108.191938027318	1
6402	103394	108.695934798902	5
6402	104064	109.295934798902	5
6402	105061	110.102398710171	8
6402	106127	110.902398710171	7
6402	106542	111.195710105509	5
6402	107174	111.696810105509	5
6402	107959	112.504950161549	7
6402	108398	113.013543406672	4
6402	108788	113.418619132755	3
6402	109028	113.625869394539	7
6402	109530	114.036933539462	4
6402	110228	114.636933539462	5
6402	110617	114.94246336296	2
6402	111645	115.744948146473	7
6402	111650	115.746711221821	5
6402	111652	115.747655793065	7
6402	112640	116.548755793065	8
6402	112837	116.748755793065	1
6402	113066	116.954206887747	1
6402	113312	117.163802911769	1
6402	113376	117.233164232825	1
6402	113553	117.366410755286	1
6402	113629	117.436990828849	1
6402	113868	117.645354838508	1
6402	114199	117.947857675768	2
6402	114445	118.152895087682	1
6402	114475	118.169855436844	7
6402	114970	118.571836896924	6
6402	115616	119.171836896924	5
6402	115932	119.476720560105	2
6402	116670	120.082239486838	5
6402	117454	120.793291658052	8
6402	117992	121.193291658052	3
6402	119180	122.170507522528	8
6402	119375	122.307527997369	10
6402	119799	122.615260766096	2
6402	119813	122.636897405087	2
6402	120162	122.915917948979	2
6402	120311	123.071276882053	8
6402	120431	123.172376882053	1
6402	121232	123.864067161109	4
6402	121409	124.075972395129	1
6402	122074	124.586853350429	5
6402	122428	124.886853350429	2
6402	123132	125.392051980295	4
6402	123491	125.700222845533	2
6402	123623	125.75969011571	5
6402	123765	125.840967161429	1
6402	123810	125.903645957383	3
6402	124508	126.408882915449	5
6402	125090	126.908882915449	4
6402	125591	127.311002823944	4
6402	125865	127.519235869984	1
6402	125891	127.535235280774	1
6402	126172	127.693265136581	3
6402	126462	127.923109146531	3
6402	126618	128.036792228398	6
6402	127453	128.747029737325	7
6402	127983	129.247029737325	5
6402	128302	129.55991593317	4
6402	128466	129.656002662445	4
6402	128752	129.952455376078	6
6402	128766	129.961174273242	3
6402	129039	130.253503905689	2
6402	129166	130.362182688773	6
6402	129169	130.362991418871	3
6402	129561	130.664964513132	3
6402	130603	131.564964513132	10
6402	131117	131.966043576801	3
6402	131387	132.185768712914	1
6402	131505	132.286868712914	1
6402	132942	133.486868712914	11
6402	133329	133.788205904255	2
6402	134356	134.600961209693	8
6402	134582	134.790511556172	1
6402	135794	135.999057456863	13
6402	136221	136.399057456863	3
6402	136396	136.606950120719	1
6403	142	20.101	0.875
6403	558	20.801	0.25
6403	1525	21.808048170193	-0.5
6403	1863	22.145658817342	0.875
6403	2037	22.308048170193	0.375
6403	2325	22.551595781654	0.625
6403	2706	22.931396291123	0.375
6403	3460	23.63930194049	0
6403	4013	24.13930194049	0.5
6403	4382	24.448363268979	0.75
6403	4760	24.76005500132	0.5
6403	4950	24.957317074588	0.375
6403	5316	25.266475336176	0.5
6403	5513	25.463031977156	0.5
6403	5785	25.766355921313	0.75
6403	5800	25.769203557652	0.25
6403	6207	26.170303557652	0.5
6403	7256	27.070303557652	-0.25
6403	7610	27.383119535819	0.625
6403	8581	28.290861085225	0
6403	9046	28.691961085225	0.5
6403	10062	29.591961085225	-0.125
6403	10489	29.898190078772	0.5
6403	11289	30.513567453679	0.25
6403	12195	31.216836426232	0.125
6403	13083	31.920923076178	0.25
6403	13095	31.932368324362	0.25
6403	13463	32.231801914955	0.75
6403	13468	32.236237881211	0.75
6403	13528	32.302169028999	0.75
6403	14097	32.712940431397	0.5
6403	14394	32.912940431397	0.875
6403	14823	33.222861913364	0.75
6403	15392	33.721885344335	0.75
6403	15632	33.923018770161	0.875
6403	15857	34.13416627504	0.875
6403	16805	34.885050455188	0.125
6403	18034	35.985050455188	-0.375
6403	18877	36.888461243569	0
6403	19760	37.798752649016	-0.125
6403	20002	38.003569850705	0.75
6403	20207	38.203569850705	0.875
6403	20686	38.609502096632	0.625
6403	20815	38.735337066604	0.625
6403	20936	38.836437066604	0.875
6403	21393	39.236437066604	0.625
6403	21745	39.565261929605	0.625
6403	22005	39.779099699431	0.375
6403	22904	40.487023111049	0
6403	23777	41.187023111049	0.125
6403	24102	41.496236232282	0.75
6403	24552	41.908321053197	0.625
6403	24574	41.917484667619	0.875
6403	24812	42.119234617216	0.75
6403	25992	43.019234617216	-0.25
6403	26340	43.327690434324	0.75
6403	27515	44.337515748616	-0.25
6403	27823	44.53550053956	0.125
6403	27891	44.579326565972	0.875
6403	28021	44.641393585433	0.625
6403	28142	44.747609254944	0.875
6403	28988	45.447609254944	0
6403	29785	46.158522686277	0.125
6403	30537	46.858522686277	0.125
6403	30745	47.063368133414	0.875
6403	30905	47.264316327192	0.875
6403	31410	47.671255683611	0.5
6403	31620	47.871255683611	0.75
6403	32250	48.3698746899	0.625
6403	33032	49.0709746899	0
6403	33429	49.37139353815	0.75
6403	33851	49.703655746238	0.625
6403	33872	49.710361164268	0.75
6403	34151	49.911461164268	0.625
6403	34628	50.302066518308	0.875
6403	35452	51.002066518308	0.25
6403	35799	51.32100431434	0.75
6403	36425	51.825658487711	0.375
6403	36441	51.835980025051	0.75
6403	36503	51.920425346268	0.25
6403	37059	52.42304046518	0.125
6403	37683	52.92304046518	0.5
6403	38717	53.826286906167	-0.125
6403	39699	54.797915492235	-0.625
6403	39743	54.832176220624	-0.375
6403	39905	55.006483626804	0
6403	40047	55.136910519504	0.75
6403	40146	55.205533958939	0.625
6403	40429	55.41342111471	0.625
6403	40439	55.416071883622	0.625
6403	40984	55.81857054644	0.375
6403	41239	56.01857054644	0.75
6403	41475	56.220722016459	0.875
6403	42299	56.921822016459	0.125
6403	42738	57.321822016459	0.625
6403	43021	57.531647145169	0.875
6403	44573	58.732747145169	-0.75
6403	45831	59.776155942573	0.5
6403	47171	61.076155942573	-0.5
6403	47364	61.282725407967	0.875
6403	48168	61.891975856554	0.25
6403	48951	62.591975856554	0.25
6403	49087	62.702969527724	0.625
6403	49531	63.109861233724	0.5
6403	49983	63.509861233724	0.625
6403	50503	63.915476597045	0.625
6403	50773	64.119139101017	0.625
6403	51257	64.50285950122	0.625
6403	51414	64.622882373709	0.25
6403	52017	65.023982373709	0.5
6403	52888	65.723982373709	0.25
6403	53135	65.926103630374	0.25
6403	53548	66.331028741959	0.625
6403	53845	66.608560482751	0.75
6403	53885	66.625241323596	0
6403	54244	66.933996369903	0.625
6403	54763	67.333996369903	0.5
6403	55005	67.542624813977	0.75
6403	56176	68.442624813977	0
6403	56619	68.848614311653	0.625
6403	56650	68.859427212081	1
6403	57703	69.759427212081	0
6403	58073	70.06325610528	0.75
6403	58474	70.410977438307	0.75
6403	58555	70.466872607245	0.75
6403	58988	70.87488807838	0.625
6403	59910	71.57598807838	0.125
6403	60378	71.97598807838	0.625
6403	60649	72.30436815268	0.5
6403	60811	72.476656321244	0.375
6403	60883	72.564928705289	0.5
6403	60950	72.606390592778	0.75
6403	61392	73.013888430583	0.5
6403	61765	73.313888430583	0.75
6403	61986	73.517891908801	0.875
6403	62399	73.92895005396	0.5
6403	63413	74.82895005396	-0.25
6403	64005	75.336850456571	0.5
6403	64284	75.541160336131	0.875
6403	64290	75.553871051212	0.875
6403	64597	75.843872661023	0.625
6403	64712	75.946043786766	0.875
6403	65400	76.514678221313	0.625
6403	65623	76.646043786766	0
6403	65766	76.826150892383	0.75
6403	66232	77.234704560116	0.5
6403	66961	77.834704560116	0.375
6403	67484	78.243882631852	0.625
6403	67760	78.44931762836	0.875
6403	68442	78.953949343806	0.375
6403	68870	79.353949343806	0.625
6403	69725	80.162799928804	0.125
6403	70366	80.768834653451	0.375
6403	71299	81.577448500906	-0.125
6403	71905	82.077448500906	0.5
6403	72225	82.386268762015	0.75
6403	72322	82.481007716114	0.75
6403	72728	82.788877261462	0.625
6403	73527	83.388877261462	0.25
6403	73919	83.798867780835	0.625
6403	74424	84.313844292552	0.5
6403	74744	84.519885385152	0.875
6403	75687	85.223126178635	0
6403	75982	85.423126178635	0.875
6403	76882	86.127667705621	0.25
6403	77812	86.83363489456	0.25
6403	77921	86.966218816999	0
6403	77979	87.037401867336	0.875
6403	78218	87.247271348677	0.875
6403	78277	87.275950348498	0.875
6403	78668	87.60158631847	0.75
6403	78864	87.778753324729	0.75
6403	79077	87.95518490972	0.25
6403	79496	88.256664625279	0.625
6403	79924	88.561922968291	0.75
6403	80997	89.431260677453	0.875
6403	81749	90.1694194553	0.5
6403	82346	90.7694194553	0.375
6403	82719	91.076381111996	0.75
6403	83065	91.383127792858	0.75
6403	83090	91.397664483079	0.75
6403	84274	92.306790096697	-0.25
6403	84671	92.606790096697	0.75
6403	85398	93.210397974555	0.25
6403	85780	93.511497974555	0.625
6403	86272	93.911497974555	0.625
6403	86550	94.119250816442	0.875
6403	86956	94.420350816442	0.625
6403	87203	94.620350816442	0.875
6403	87803	95.032091545509	0.5
6403	88117	95.332091545509	0.75
6403	89065	96.137469721676	0.125
6403	89469	96.538569721676	0.375
6403	89925	96.938569721676	0.625
6403	90168	97.146916461909	0.875
6403	90545	97.45684335904	0.75
6403	91210	98.154310767531	-0.25
6403	91251	98.188046581359	0.75
6403	92014	98.893840749752	0.125
6403	92631	99.393840749752	0.375
6403	93201	99.904403009114	0.375
6403	94044	100.615765693352	0.25
6403	94499	101.014108489853	0.5
6403	94862	101.313405943161	0.75
6403	94882	101.332193976825	0.875
6403	94890	101.334566763594	0.25
6403	94995	101.418714090763	0.625
6403	95024	101.421365394051	1
6403	95768	102.121365394051	0.25
6403	97324	103.524066072701	-0.75
6403	97870	104.025308242522	0.375
6403	98230	104.326408242522	0.625
6403	99201	105.145863638923	0.625
6403	100526	106.145863638923	-0.25
6403	101630	107.122776500275	0.375
6403	102021	107.453691044638	-0.625
6403	102450	107.827707928539	0.25
6403	102610	107.982455002207	0.625
6403	102743	108.156679680442	0.25
6403	102787	108.191938027318	0.875
6403	103394	108.695934798902	0.375
6403	104064	109.295934798902	0.375
6403	105061	110.102398710171	0
6403	106127	110.902398710171	0.125
6403	106542	111.195710105509	0.375
6403	107174	111.696810105509	0.375
6403	107959	112.504950161549	0.125
6403	108398	113.013543406672	0.5
6403	108788	113.418619132755	0.625
6403	109028	113.625869394539	0.125
6403	109530	114.036933539462	0.5
6403	110228	114.636933539462	0.375
6403	110617	114.94246336296	0.75
6403	111645	115.744948146473	0.125
6403	111650	115.746711221821	0.375
6403	111652	115.747655793065	0.125
6403	112640	116.548755793065	0
6403	112837	116.748755793065	0.875
6403	113066	116.954206887747	0.875
6403	113312	117.163802911769	0.875
6403	113376	117.233164232825	0.875
6403	113553	117.366410755286	0.875
6403	113629	117.436990828849	0.875
6403	113868	117.645354838508	0.875
6403	114199	117.947857675768	0.75
6403	114445	118.152895087682	0.875
6403	114475	118.169855436844	0.125
6403	114970	118.571836896924	0.25
6403	115616	119.171836896924	0.375
6403	115932	119.476720560105	0.75
6403	116670	120.082239486838	0.375
6403	117454	120.793291658052	0
6403	117992	121.193291658052	0.625
6403	119180	122.170507522528	0
6403	119375	122.307527997369	-0.25
6403	119799	122.615260766096	0.75
6403	119813	122.636897405087	0.75
6403	120162	122.915917948979	0.75
6403	120311	123.071276882053	0
6403	120431	123.172376882053	0.875
6403	121232	123.864067161109	0.5
6403	121409	124.075972395129	0.875
6403	122074	124.586853350429	0.375
6403	122428	124.886853350429	0.75
6403	123132	125.392051980295	0.5
6403	123491	125.700222845533	0.75
6403	123623	125.75969011571	0.375
6403	123765	125.840967161429	0.875
6403	123810	125.903645957383	0.625
6403	124508	126.408882915449	0.375
6403	125090	126.908882915449	0.5
6403	125591	127.311002823944	0.5
6403	125865	127.519235869984	0.875
6403	125891	127.535235280774	0.875
6403	126172	127.693265136581	0.625
6403	126462	127.923109146531	0.625
6403	126618	128.036792228398	0.25
6403	127453	128.747029737325	0.125
6403	127983	129.247029737325	0.375
6403	128302	129.55991593317	0.5
6403	128466	129.656002662445	0.5
6403	128752	129.952455376078	0.25
6403	128766	129.961174273242	0.625
6403	129039	130.253503905689	0.75
6403	129166	130.362182688773	0.25
6403	129169	130.362991418871	0.625
6403	129561	130.664964513132	0.625
6403	130603	131.564964513132	-0.25
6403	131117	131.966043576801	0.625
6403	131387	132.185768712914	0.875
6403	131505	132.286868712914	0.875
6403	132942	133.486868712914	-0.375
6403	133329	133.788205904255	0.75
6403	134356	134.600961209693	0
6403	134582	134.790511556172	0.875
6403	135794	135.999057456863	-0.625
6403	136221	136.399057456863	0.625
6403	136396	136.606950120719	0.875
6404	142	20.101	0.1
6404	558	20.801	0.7
6404	1525	21.808048170193	1
6404	1863	22.145658817342	0.2
6404	2037	22.308048170193	0.5
6404	2325	22.551595781654	0.4
6404	2706	22.931396291123	0.6
6404	3460	23.63930194049	0.7
6404	4013	24.13930194049	0.5
6404	4382	24.448363268979	0.3
6404	4760	24.76005500132	0.5
6404	4950	24.957317074588	0.5
6404	5316	25.266475336176	0.5
6404	5513	25.463031977156	0.5
6404	5785	25.766355921313	0.3
6404	5800	25.769203557652	0.7
6404	6207	26.170303557652	0.4
6404	7256	27.070303557652	0.9
6404	7610	27.383119535819	0.3
6404	8581	28.290861085225	0.9
6404	9046	28.691961085225	0.4
6404	10062	29.591961085225	0.9
6404	10489	29.898190078772	0.3
6404	11289	30.513567453679	0.6
6404	12195	31.216836426232	0.7
6404	13083	31.920923076178	0.7
6404	13095	31.932368324362	0.7
6404	13463	32.231801914955	0.3
6404	13468	32.236237881211	0.3
6404	13528	32.302169028999	0.3
6404	14097	32.712940431397	0.4
6404	14394	32.912940431397	0.2
6404	14823	33.222861913364	0.3
6404	15392	33.721885344335	0.3
6404	15632	33.923018770161	0.2
6404	15857	34.13416627504	0.2
6404	16805	34.885050455188	0.7
6404	18034	35.985050455188	1.1
6404	18877	36.888461243569	0.9
6404	19760	37.798752649016	0.9
6404	20002	38.003569850705	0.2
6404	20207	38.203569850705	0.2
6404	20686	38.609502096632	0.4
6404	20815	38.735337066604	0.4
6404	20936	38.836437066604	0.1
6404	21393	39.236437066604	0.4
6404	21745	39.565261929605	0.3
6404	22005	39.779099699431	0.6
6404	22904	40.487023111049	0.7
6404	23777	41.187023111049	0.7
6404	24102	41.496236232282	0.3
6404	24552	41.908321053197	0.4
6404	24574	41.917484667619	0.2
6404	24812	42.119234617216	0.2
6404	25992	43.019234617216	0.9
6404	26340	43.327690434324	0.3
6404	27515	44.337515748616	1
6404	27823	44.53550053956	0.7
6404	27891	44.579326565972	0.2
6404	28021	44.641393585433	0.3
6404	28142	44.747609254944	0.1
6404	28988	45.447609254944	0.7
6404	29785	46.158522686277	0.7
6404	30537	46.858522686277	0.7
6404	30745	47.063368133414	0.2
6404	30905	47.264316327192	0.2
6404	31410	47.671255683611	0.4
6404	31620	47.871255683611	0.2
6404	32250	48.3698746899	0.4
6404	33032	49.0709746899	0.7
6404	33429	49.37139353815	0.3
6404	33851	49.703655746238	0.3
6404	33872	49.710361164268	0.3
6404	34151	49.911461164268	0.2
6404	34628	50.302066518308	0.1
6404	35452	51.002066518308	0.7
6404	35799	51.32100431434	0.3
6404	36425	51.825658487711	0.5
6404	36441	51.835980025051	0.3
6404	36503	51.920425346268	0.6
6404	37059	52.42304046518	0.5
6404	37683	52.92304046518	0.5
6404	38717	53.826286906167	0.9
6404	39699	54.797915492235	1.3
6404	39743	54.832176220624	1
6404	39905	55.006483626804	1
6404	40047	55.136910519504	0.3
6404	40146	55.205533958939	0.4
6404	40429	55.41342111471	0.4
6404	40439	55.416071883622	0.4
6404	40984	55.81857054644	0.4
6404	41239	56.01857054644	0.2
6404	41475	56.220722016459	0.2
6404	42299	56.921822016459	0.7
6404	42738	57.321822016459	0.4
6404	43021	57.531647145169	0.2
6404	44573	58.732747145169	1.2
6404	45831	59.776155942573	0.4
6404	47171	61.076155942573	1.3
6404	47364	61.282725407967	0.2
6404	48168	61.891975856554	0.6
6404	48951	62.591975856554	0.7
6404	49087	62.702969527724	0.4
6404	49531	63.109861233724	0.4
6404	49983	63.509861233724	0.4
6404	50503	63.915476597045	0.4
6404	50773	64.119139101017	0.4
6404	51257	64.50285950122	0.3
6404	51414	64.622882373709	0.5
6404	52017	65.023982373709	0.4
6404	52888	65.723982373709	0.7
6404	53135	65.926103630374	0.7
6404	53548	66.331028741959	0.4
6404	53845	66.608560482751	0.3
6404	53885	66.625241323596	0.9
6404	54244	66.933996369903	0.3
6404	54763	67.333996369903	0.4
6404	55005	67.542624813977	0.2
6404	56176	68.442624813977	0.9
6404	56619	68.848614311653	0.4
6404	56650	68.859427212081	0
6404	57703	69.759427212081	0.9
6404	58073	70.06325610528	0.3
6404	58474	70.410977438307	0.3
6404	58555	70.466872607245	0.3
6404	58988	70.87488807838	0.4
6404	59910	71.57598807838	0.7
6404	60378	71.97598807838	0.4
6404	60649	72.30436815268	0.5
6404	60811	72.476656321244	0.5
6404	60883	72.564928705289	0.5
6404	60950	72.606390592778	0.3
6404	61392	73.013888430583	0.4
6404	61765	73.313888430583	0.3
6404	61986	73.517891908801	0.2
6404	62399	73.92895005396	0.4
6404	63413	74.82895005396	0.9
6404	64005	75.336850456571	0.5
6404	64284	75.541160336131	0.2
6404	64290	75.553871051212	0.2
6404	64597	75.843872661023	0.3
6404	64712	75.946043786766	0.1
6404	65400	76.514678221313	0.4
6404	65623	76.646043786766	0.7
6404	65766	76.826150892383	0.3
6404	66232	77.234704560116	0.4
6404	66961	77.834704560116	0.6
6404	67484	78.243882631852	0.4
6404	67760	78.44931762836	0.2
6404	68442	78.953949343806	0.5
6404	68870	79.353949343806	0.4
6404	69725	80.162799928804	0.8
6404	70366	80.768834653451	0.6
6404	71299	81.577448500906	0.8
6404	71905	82.077448500906	0.5
6404	72225	82.386268762015	0.3
6404	72322	82.481007716114	0.3
6404	72728	82.788877261462	0.3
6404	73527	83.388877261462	0.6
6404	73919	83.798867780835	0.4
6404	74424	84.313844292552	0.5
6404	74744	84.519885385152	0.2
6404	75687	85.223126178635	0.7
6404	75982	85.423126178635	0.2
6404	76882	86.127667705621	0.7
6404	77812	86.83363489456	0.7