version 2
run Stability-50-20130526-18:50:22-1898
attr configname Stability
attr datetime 20130526-18:50:22
attr experiment Stability
attr inifile omnetpp.ini
attr iterationvars $0=1e1
attr iterationvars2 "$0=1e1, $repetition=0"
attr measurement $0=1e1
attr network Network
attr processid 1898
attr repetition 0
attr replication #0
attr resultdir results
attr runnumber 50
attr seedset 50

vector 4946  Network.churner  inGoingSizeSig:vector  ETV
vector 4853  Network.dyn_peer[1]  lookupHopsSig:vector  ETV
vector 4854  Network.dyn_peer[1]  lookupStabilitySig:vector  ETV
vector 4855  Network.dyn_peer[1]  lookupTimeSig:vector  ETV
vector 4883  Network.dyn_peer[11]  lookupHopsSig:vector  ETV
vector 4884  Network.dyn_peer[11]  lookupStabilitySig:vector  ETV
vector 4885  Network.dyn_peer[11]  lookupTimeSig:vector  ETV
vector 4856  Network.dyn_peer[2]  lookupHopsSig:vector  ETV
vector 4857  Network.dyn_peer[2]  lookupStabilitySig:vector  ETV
vector 4858  Network.dyn_peer[2]  lookupTimeSig:vector  ETV
vector 4859  Network.dyn_peer[3]  lookupHopsSig:vector  ETV
vector 4860  Network.dyn_peer[3]  lookupStabilitySig:vector  ETV
vector 4861  Network.dyn_peer[3]  lookupTimeSig:vector  ETV
vector 4889  Network.dyn_peer[13]  lookupHopsSig:vector  ETV
vector 4890  Network.dyn_peer[13]  lookupStabilitySig:vector  ETV
vector 4891  Network.dyn_peer[13]  lookupTimeSig:vector  ETV
vector 4865  Network.dyn_peer[5]  lookupHopsSig:vector  ETV
vector 4866  Network.dyn_peer[5]  lookupStabilitySig:vector  ETV
vector 4867  Network.dyn_peer[5]  lookupTimeSig:vector  ETV
vector 4868  Network.dyn_peer[6]  lookupHopsSig:vector  ETV
vector 4869  Network.dyn_peer[6]  lookupStabilitySig:vector  ETV
vector 4870  Network.dyn_peer[6]  lookupTimeSig:vector  ETV
vector 4874  Network.dyn_peer[8]  lookupHopsSig:vector  ETV
vector 4875  Network.dyn_peer[8]  lookupStabilitySig:vector  ETV
vector 4876  Network.dyn_peer[8]  lookupTimeSig:vector  ETV
vector 4850  Network.dyn_peer[0]  lookupHopsSig:vector  ETV
vector 4851  Network.dyn_peer[0]  lookupStabilitySig:vector  ETV
vector 4852  Network.dyn_peer[0]  lookupTimeSig:vector  ETV
vector 4916  Network.dyn_peer[22]  lookupHopsSig:vector  ETV
vector 4917  Network.dyn_peer[22]  lookupStabilitySig:vector  ETV
vector 4918  Network.dyn_peer[22]  lookupTimeSig:vector  ETV
vector 4862  Network.dyn_peer[4]  lookupHopsSig:vector  ETV
vector 4863  Network.dyn_peer[4]  lookupStabilitySig:vector  ETV
vector 4864  Network.dyn_peer[4]  lookupTimeSig:vector  ETV
vector 4871  Network.dyn_peer[7]  lookupHopsSig:vector  ETV
vector 4872  Network.dyn_peer[7]  lookupStabilitySig:vector  ETV
vector 4873  Network.dyn_peer[7]  lookupTimeSig:vector  ETV
vector 4877  Network.dyn_peer[9]  lookupHopsSig:vector  ETV
vector 4878  Network.dyn_peer[9]  lookupStabilitySig:vector  ETV
vector 4879  Network.dyn_peer[9]  lookupTimeSig:vector  ETV
vector 4907  Network.dyn_peer[19]  lookupHopsSig:vector  ETV
vector 4908  Network.dyn_peer[19]  lookupStabilitySig:vector  ETV
vector 4909  Network.dyn_peer[19]  lookupTimeSig:vector  ETV
vector 4880  Network.dyn_peer[10]  lookupHopsSig:vector  ETV
vector 4881  Network.dyn_peer[10]  lookupStabilitySig:vector  ETV
vector 4882  Network.dyn_peer[10]  lookupTimeSig:vector  ETV
vector 4913  Network.dyn_peer[21]  lookupHopsSig:vector  ETV
vector 4914  Network.dyn_peer[21]  lookupStabilitySig:vector  ETV
vector 4915  Network.dyn_peer[21]  lookupTimeSig:vector  ETV
vector 4895  Network.dyn_peer[15]  lookupHopsSig:vector  ETV
vector 4896  Network.dyn_peer[15]  lookupStabilitySig:vector  ETV
vector 4897  Network.dyn_peer[15]  lookupTimeSig:vector  ETV
vector 4901  Network.dyn_peer[17]  lookupHopsSig:vector  ETV
vector 4902  Network.dyn_peer[17]  lookupStabilitySig:vector  ETV
vector 4903  Network.dyn_peer[17]  lookupTimeSig:vector  ETV
vector 4886  Network.dyn_peer[12]  lookupHopsSig:vector  ETV
vector 4887  Network.dyn_peer[12]  lookupStabilitySig:vector  ETV
vector 4888  Network.dyn_peer[12]  lookupTimeSig:vector  ETV
vector 4919  Network.dyn_peer[23]  lookupHopsSig:vector  ETV
vector 4920  Network.dyn_peer[23]  lookupStabilitySig:vector  ETV
vector 4921  Network.dyn_peer[23]  lookupTimeSig:vector  ETV
vector 4892  Network.dyn_peer[14]  lookupHopsSig:vector  ETV
vector 4893  Network.dyn_peer[14]  lookupStabilitySig:vector  ETV
vector 4894  Network.dyn_peer[14]  lookupTimeSig:vector  ETV
vector 4937  Network.dyn_peer[29]  lookupHopsSig:vector  ETV
vector 4938  Network.dyn_peer[29]  lookupStabilitySig:vector  ETV
vector 4939  Network.dyn_peer[29]  lookupTimeSig:vector  ETV
vector 4910  Network.dyn_peer[20]  lookupHopsSig:vector  ETV
vector 4911  Network.dyn_peer[20]  lookupStabilitySig:vector  ETV
vector 4912  Network.dyn_peer[20]  lookupTimeSig:vector  ETV
vector 4922  Network.dyn_peer[24]  lookupHopsSig:vector  ETV
vector 4923  Network.dyn_peer[24]  lookupStabilitySig:vector  ETV
vector 4924  Network.dyn_peer[24]  lookupTimeSig:vector  ETV
vector 4898  Network.dyn_peer[16]  lookupHopsSig:vector  ETV
vector 4899  Network.dyn_peer[16]  lookupStabilitySig:vector  ETV
vector 4900  Network.dyn_peer[16]  lookupTimeSig:vector  ETV
vector 4928  Network.dyn_peer[26]  lookupHopsSig:vector  ETV
vector 4929  Network.dyn_peer[26]  lookupStabilitySig:vector  ETV
vector 4930  Network.dyn_peer[26]  lookupTimeSig:vector  ETV
vector 4931  Network.dyn_peer[27]  lookupHopsSig:vector  ETV
vector 4932  Network.dyn_peer[27]  lookupStabilitySig:vector  ETV
vector 4933  Network.dyn_peer[27]  lookupTimeSig:vector  ETV
vector 4904  Network.dyn_peer[18]  lookupHopsSig:vector  ETV
vector 4905  Network.dyn_peer[18]  lookupStabilitySig:vector  ETV
vector 4906  Network.dyn_peer[18]  lookupTimeSig:vector  ETV
vector 4934  Network.dyn_peer[28]  lookupHopsSig:vector  ETV
vector 4935  Network.dyn_peer[28]  lookupStabilitySig:vector  ETV
vector 4936  Network.dyn_peer[28]  lookupTimeSig:vector  ETV
vector 4943  Network.dyn_peer[31]  lookupHopsSig:vector  ETV
vector 4944  Network.dyn_peer[31]  lookupStabilitySig:vector  ETV
vector 4945  Network.dyn_peer[31]  lookupTimeSig:vector  ETV
vector 4940  Network.dyn_peer[30]  lookupHopsSig:vector  ETV
vector 4941  Network.dyn_peer[30]  lookupStabilitySig:vector  ETV
vector 4942  Network.dyn_peer[30]  lookupTimeSig:vector  ETV
vector 4925  Network.dyn_peer[25]  lookupHopsSig:vector  ETV
vector 4926  Network.dyn_peer[25]  lookupStabilitySig:vector  ETV
vector 4927  Network.dyn_peer[25]  lookupTimeSig:vector  ETV
4850	132	20.21	2
4850	518	20.81	5
4850	709	21.118265554809	2
4850	881	21.32022230999	1
4850	1531	21.838955389649	8
4850	2077	22.321933773147	2
4850	2322	22.532033773147	2
4850	3375	23.432033773147	8
4850	3477	23.534470794226	8
4850	3876	23.839484056457	2
4850	4005	23.940687059234	5
4850	4132	24.039828341666	10
4850	4559	24.349928341666	3
4850	5151	24.849928341666	4
4850	5423	25.157479036384	2
4850	5870	25.561007899868	2
4850	6635	26.2765329553	8
4850	7097	26.6765329553	3
4850	7351	26.881407596992	1
4850	7596	27.078588814151	1
4850	8551	27.889097446947	11
4850	8649	27.981978019892	8
4850	8695	28.01343392283	8
4850	8990	28.290880182682	3
4850	9124	28.384587059343	3
4850	9636	28.89987242301	8
4850	9739	28.98620412586	7
4850	10009	29.194594628715	7
4850	10031	29.206624597597	2
4850	10246	29.422609311853	2
4850	10704	29.822609311853	4
4850	11945	30.975302886068	3
4850	11989	31.031583559844	12
4850	12558	31.583892813168	5
4850	13250	32.102467050881	5
4850	14305	33.102467050881	10
4850	14655	33.403680862924	2
4850	15051	33.718211153741	2
4850	16159	34.529565575004	9
4850	16601	34.929565575004	3
4850	16757	35.039881195844	1
4850	16984	35.247587134746	1
4850	17671	35.835095874096	1
4850	17896	36.018098007967	1
4850	18822	36.818098007967	8
4850	20061	37.754305188696	4
4850	20650	38.264405188696	5
4850	20908	38.464405188696	1
4850	21206	38.769720271234	2
4850	21577	39.086445809432	3
4850	22608	40.086445809432	9
4850	23030	40.493411009238	3
4850	23818	41.112145978385	7
4850	24224	41.512145978385	3
4850	24522	41.820204880445	3
4850	25326	42.43804416575	6
4850	26072	43.13804416575	7
4850	26760	43.745165259954	6
4850	26987	43.953962914524	2
4850	27251	44.100111692565	6
4850	27524	44.354508230517	3
4850	27715	44.508606232162	3
4850	27747	44.561936526233	1
4850	28069	44.88006411537	3
4850	28989	45.68006411537	7
4850	29372	45.988157132972	2
4850	29376	45.990870128779	2
4850	30345	46.800970128779	9
4850	30556	47.000970128779	1
4850	31891	48.202571481461	12
4850	32456	48.707817743154	4
4850	32675	48.916007906295	1
4850	33095	49.226559972705	4
4850	33347	49.426559972705	1
4850	33560	49.637279865273	1
4850	33726	49.747379865273	1
4850	34243	50.147379865273	3
4850	35069	50.875358944573	5
4850	35342	51.149455926068	11
4850	35353	51.18280007048	2
4850	35780	51.590557649593	3
4850	36108	51.894705992428	2
4850	36291	52.056715336755	9
4850	36318	52.092958068613	2
4850	36890	52.579045003971	4
4850	37120	52.796289532883	6
4850	37122	52.79737411141	8
4850	37632	53.210137587232	4
4850	38064	53.610137587232	3
4850	38325	53.915289873455	2
4850	39004	54.426020428929	5
4850	39975	55.126020428929	8
4850	40642	55.629421681537	4
4850	40902	55.859651855396	6
4850	41301	56.178129276319	3
4850	41840	56.678129276319	4
4850	42079	56.882674405886	1
4850	42234	57.044876051743	1
4850	42804	57.55434899038	10
4850	43299	57.966210730388	4
4850	43670	58.266210730388	2
4850	44256	58.766622972048	5
4850	44879	59.373824594472	5
4850	45496	59.977934069989	5
4850	46024	60.48421151026	4
4850	46405	60.79431151026	4
4850	47189	61.39431151026	6
4850	47735	61.72362892233	3
4850	48745	62.52362892233	7
4850	49004	62.732683306559	1
4850	49668	63.233159224704	3
4850	49952	63.44117725507	6
4850	50456	63.854833698576	4
4850	51461	64.754833698576	8
4850	51764	65.055064107704	2
4850	52685	65.865164107704	9
4850	53098	66.165164107704	2
4850	53435	66.478536096457	2
4850	54257	67.098439483067	6
4850	55122	67.798439483067	6
4850	55926	68.449677819814	7
4850	56163	68.606811276324	9
4850	56859	69.213655871964	5
4850	58072	70.131097696962	10
4850	58920	70.831097696962	8
4850	59206	71.037205946653	1
4850	59726	71.543013891284	4
4850	60496	72.248537103645	7
4850	60699	72.454078109138	1
4850	61212	72.957149289751	4
4850	61757	73.388634403582	9
4850	61787	73.415942855916	4
4850	62102	73.689023617644	2
4850	62940	74.399746831467	7
4850	63431	74.899746831467	4
4850	63571	75.004322354318	1
4850	63800	75.211317682731	1
4850	63898	75.307481260697	3
4850	64133	75.514805429681	1
4850	64301	75.712039681735	4
4850	64663	76.02355692973	3
4850	64861	76.22355692973	1
4850	65221	76.534249347581	3
4850	65292	76.619301561192	1
4850	66568	77.640796795515	11
4850	66896	77.940796795515	2
4850	67373	78.345261940415	3
4850	67672	78.64189628149	4
4850	67910	78.85281694955	4
4850	68102	79.04199628149	3
4850	68109	79.045364749118	3
4850	69191	79.85577989457	11
4850	69672	80.25577989457	3
4850	69981	80.563035238513	2
4850	70367	80.870341400205	2
4850	71110	81.487020494894	9
4850	72746	82.899429530669	13
4850	73186	83.199429530669	2
4850	73474	83.409529530669	2
4850	73749	83.609529530669	2
4850	74150	83.928482970978	2
4850	74398	84.131089444182	1
4850	77088	86.241189444182	23
4850	77674	86.741189444182	4
4850	77899	86.943254363104	1
4850	78475	87.459946034571	3
4850	79354	88.189194966894	7
4850	79760	88.489194966894	2
4850	79803	88.499294966894	0
4850	80232	88.899294966894	3
4850	80388	89.005904701065	1
4850	81004	89.575192400267	2
4850	81320	89.806022155037	10
4850	81549	89.975866852764	3
4850	82344	90.597486666922	6
4850	82854	90.997486666922	3
4850	82981	91.113609539751	1
4850	83573	91.613609539751	4
4850	84879	92.528329617982	11
4850	85139	92.728329617982	1
4850	85633	93.213870329124	5
4850	85887	93.433396883518	6
4850	86081	93.576684423187	3
4850	86682	94.086784423187	5
4850	87771	95.086784423187	10
4850	88329	95.595393324585	4
4850	88627	95.804765408403	1
4850	88866	96.009121089112	1
4850	89028	96.125847986345	1
4850	89777	96.725847986345	6
4850	90240	97.132392132084	4
4850	90663	97.540631894149	3
4850	90795	97.650731894149	1
4850	91279	98.050731894149	3
4850	91547	98.257739700277	1
4850	91672	98.36987560856	1
4850	91682	98.379452648841	4
4850	91902	98.584044860348	1
4850	92168	98.803926001496	2
4850	92556	99.203926001496	4
4850	92767	99.410718671418	1
4850	93260	99.92859796577	5
4850	93556	100.22859796577	2
4850	93909	100.572536127137	2
4850	94419	100.988583158399	4
4850	94662	101.207720797808	1
4850	95020	101.516521319402	2
4850	96007	102.341604824881	8
4850	96560	102.765763768026	2
4850	97214	103.341604824881	11
4850	97479	103.548002786864	2
4850	97501	103.566932891259	5
4850	97503	103.567407431638	7
4850	97505	103.567423982461	3
4850	98206	104.077507431638	7
4850	98660	104.470190896415	1
4850	99149	104.877507431638	7
4850	99408	105.086035208881	1
4850	100034	105.628041758302	5
4850	100395	105.928362325443	2
4850	100605	106.106742028445	2
4850	101077	106.521173316608	4
4850	101238	106.721173316608	1
4850	102786	108.209201002273	7
4850	104240	109.418668930784	3
4850	105477	110.418668930784	9
4850	106075	110.902458210755	12
4850	106151	110.928067574153	4
4850	106452	111.146609149723	3
4850	107252	111.733543107898	1
4850	107499	111.933543107898	1
4850	107622	112.044176806708	0
4850	108266	112.580781550876	5
4850	108506	112.785728334112	1
4850	109636	113.801004578097	10
4850	109859	114.010691262379	1
4850	110298	114.424381437655	4
4850	110952	115.024381437655	5
4850	112294	116.234110737335	11
4850	113081	116.85022987145	7
4850	113501	117.25022987145	4
4850	113762	117.557647103737	2
4850	114236	117.967747103737	5
4850	114442	118.167747103737	1
4850	114931	118.577095848924	3
4850	115348	118.929056708199	5
4850	115459	118.986724769246	3
4850	115634	119.13579132326	1
4850	116498	119.850140268854	7
4850	117606	120.750140268854	9
4850	118927	121.663717233899	10
4850	119641	122.163717233899	4
4850	120217	122.669990854849	5
4850	120630	123.071448580316	3
4850	120855	123.276780015447	1
4850	121024	123.389185364647	1
4850	122973	124.89751920524	2
4850	123153	125.089185364647	17
4850	123501	125.40592349973	3
4850	124216	126.008154799576	5
4850	125435	126.915339818597	9
4850	126364	127.815929324978	10
4850	126553	128.022507590318	1
4850	126870	128.232834164604	3
4850	127177	128.532834164604	2
4850	127778	129.03796550691	4
4850	128672	129.838807672907	7
4850	128675	129.843502498912	7
4850	129033	130.145207061553	3
4850	129037	130.147533942701	3
4850	129691	130.750019192505	5
4850	129695	130.750787685744	5
4850	129698	130.753972705001	5
4850	129867	130.91286354913	9
4850	129904	130.956487083079	1
4850	129906	130.957886172896	1
4850	129912	130.962433318771	1
4850	130261	131.259166440894	2
4850	130678	131.592529059965	3
4850	131731	132.592529059965	9
4850	132039	132.792626241443	1
4850	132457	133.100897783664	2
4850	132671	133.232466517448	6
4850	133366	133.852798037735	7
4850	133674	134.170205679314	2
4850	134044	134.553004097615	1
4850	134517	134.963104097615	6
4850	134815	135.263104097615	2
4850	135079	135.466647356639	1
4850	135125	135.524406693674	1
4850	136627	136.848919913084	15
4850	137085	137.348919913084	4
4850	137262	137.562133779935	1
4850	137485	137.98108148752	3
4850	137574	138.384553312256	3
4850	137599	138.57445439737	3
4851	132	20.21	0.75
4851	518	20.81	0.375
4851	709	21.118265554809	0.75
4851	881	21.32022230999	0.875
4851	1531	21.838955389649	0
4851	2077	22.321933773147	0.75
4851	2322	22.532033773147	0.75
4851	3375	23.432033773147	0
4851	3477	23.534470794226	0
4851	3876	23.839484056457	0.75
4851	4005	23.940687059234	0.375
4851	4132	24.039828341666	-0.25
4851	4559	24.349928341666	0.625
4851	5151	24.849928341666	0.5
4851	5423	25.157479036384	0.75
4851	5870	25.561007899868	0.75
4851	6635	26.2765329553	0
4851	7097	26.6765329553	0.625
4851	7351	26.881407596992	0.875
4851	7596	27.078588814151	0.875
4851	8551	27.889097446947	-0.375
4851	8649	27.981978019892	0
4851	8695	28.01343392283	0
4851	8990	28.290880182682	0.625
4851	9124	28.384587059343	0.625
4851	9636	28.89987242301	0
4851	9739	28.98620412586	0.125
4851	10009	29.194594628715	0.125
4851	10031	29.206624597597	0.75
4851	10246	29.422609311853	0.75
4851	10704	29.822609311853	0.5
4851	11945	30.975302886068	0.625
4851	11989	31.031583559844	-0.5
4851	12558	31.583892813168	0.375
4851	13250	32.102467050881	0.375
4851	14305	33.102467050881	-0.25
4851	14655	33.403680862924	0.75
4851	15051	33.718211153741	0.75
4851	16159	34.529565575004	-0.125
4851	16601	34.929565575004	0.625
4851	16757	35.039881195844	0.875
4851	16984	35.247587134746	0.875
4851	17671	35.835095874096	0.875
4851	17896	36.018098007967	0.875
4851	18822	36.818098007967	0
4851	20061	37.754305188696	0.5
4851	20650	38.264405188696	0.375
4851	20908	38.464405188696	0.875
4851	21206	38.769720271234	0.75
4851	21577	39.086445809432	0.625
4851	22608	40.086445809432	-0.125
4851	23030	40.493411009238	0.625
4851	23818	41.112145978385	0.125
4851	24224	41.512145978385	0.625
4851	24522	41.820204880445	0.625
4851	25326	42.43804416575	0.25
4851	26072	43.13804416575	0.125
4851	26760	43.745165259954	0.25
4851	26987	43.953962914524	0.75
4851	27251	44.100111692565	0.25
4851	27524	44.354508230517	0.625
4851	27715	44.508606232162	0.625
4851	27747	44.561936526233	0.875
4851	28069	44.88006411537	0.625
4851	28989	45.68006411537	0.125
4851	29372	45.988157132972	0.75
4851	29376	45.990870128779	0.75
4851	30345	46.800970128779	-0.125
4851	30556	47.000970128779	0.875
4851	31891	48.202571481461	-0.5
4851	32456	48.707817743154	0.5
4851	32675	48.916007906295	0.875
4851	33095	49.226559972705	0.5
4851	33347	49.426559972705	0.875
4851	33560	49.637279865273	0.875
4851	33726	49.747379865273	0.875
4851	34243	50.147379865273	0.625
4851	35069	50.875358944573	0.375
4851	35342	51.149455926068	-0.375
4851	35353	51.18280007048	0.75
4851	35780	51.590557649593	0.625
4851	36108	51.894705992428	0.75
4851	36291	52.056715336755	-0.125
4851	36318	52.092958068613	0.75
4851	36890	52.579045003971	0.5
4851	37120	52.796289532883	0.25
4851	37122	52.79737411141	0
4851	37632	53.210137587232	0.5
4851	38064	53.610137587232	0.625
4851	38325	53.915289873455	0.75
4851	39004	54.426020428929	0.375
4851	39975	55.126020428929	0
4851	40642	55.629421681537	0.5
4851	40902	55.859651855396	0.25
4851	41301	56.178129276319	0.625
4851	41840	56.678129276319	0.5
4851	42079	56.882674405886	0.875
4851	42234	57.044876051743	0.875
4851	42804	57.55434899038	-0.25
4851	43299	57.966210730388	0.5
4851	43670	58.266210730388	0.75
4851	44256	58.766622972048	0.375
4851	44879	59.373824594472	0.375
4851	45496	59.977934069989	0.375
4851	46024	60.48421151026	0.5
4851	46405	60.79431151026	0.5
4851	47189	61.39431151026	0.25
4851	47735	61.72362892233	0.625
4851	48745	62.52362892233	0.125
4851	49004	62.732683306559	0.875
4851	49668	63.233159224704	0.625
4851	49952	63.44117725507	0.25
4851	50456	63.854833698576	0.5
4851	51461	64.754833698576	0
4851	51764	65.055064107704	0.75
4851	52685	65.865164107704	-0.125
4851	53098	66.165164107704	0.75
4851	53435	66.478536096457	0.75
4851	54257	67.098439483067	0.25
4851	55122	67.798439483067	0.25
4851	55926	68.449677819814	0.125
4851	56163	68.606811276324	-0.125
4851	56859	69.213655871964	0.375
4851	58072	70.131097696962	-0.25
4851	58920	70.831097696962	0
4851	59206	71.037205946653	0.875
4851	59726	71.543013891284	0.5
4851	60496	72.248537103645	0.125
4851	60699	72.454078109138	0.875
4851	61212	72.957149289751	0.5
4851	61757	73.388634403582	-0.125
4851	61787	73.415942855916	0.5
4851	62102	73.689023617644	0.75
4851	62940	74.399746831467	0.125
4851	63431	74.899746831467	0.5
4851	63571	75.004322354318	0.875
4851	63800	75.211317682731	0.875
4851	63898	75.307481260697	0.625
4851	64133	75.514805429681	0.875
4851	64301	75.712039681735	0.5
4851	64663	76.02355692973	0.625
4851	64861	76.22355692973	0.875
4851	65221	76.534249347581	0.625
4851	65292	76.619301561192	0.875
4851	66568	77.640796795515	-0.375
4851	66896	77.940796795515	0.75
4851	67373	78.345261940415	0.625
4851	67672	78.64189628149	0.55555555224419
4851	67910	78.85281694955	0.5
4851	68102	79.04199628149	0.625
4851	68109	79.045364749118	0.625
4851	69191	79.85577989457	-0.375
4851	69672	80.25577989457	0.625
4851	69981	80.563035238513	0.75
4851	70367	80.870341400205	0.75
4851	71110	81.487020494894	-0.125
4851	72746	82.899429530669	-0.625
4851	73186	83.199429530669	0.75
4851	73474	83.409529530669	0.75
4851	73749	83.609529530669	0.75
4851	74150	83.928482970978	0.75
4851	74398	84.131089444182	0.875
4851	77088	86.241189444182	-1.875
4851	77674	86.741189444182	0.5
4851	77899	86.943254363104	0.875
4851	78475	87.459946034571	0.625
4851	79354	88.189194966894	0.125
4851	79760	88.489194966894	0.75
4851	79803	88.499294966894	1
4851	80232	88.899294966894	0.625
4851	80388	89.005904701065	0.875
4851	81004	89.575192400267	0.75
4851	81320	89.806022155037	-0.25
4851	81549	89.975866852764	0.625
4851	82344	90.597486666922	0.25
4851	82854	90.997486666922	0.625
4851	82981	91.113609539751	0.875
4851	83573	91.613609539751	0.5
4851	84879	92.528329617982	-0.375
4851	85139	92.728329617982	0.875
4851	85633	93.213870329124	0.375
4851	85887	93.433396883518	0.25
4851	86081	93.576684423187	0.625
4851	86682	94.086784423187	0.375
4851	87771	95.086784423187	-0.25
4851	88329	95.595393324585	0.5
4851	88627	95.804765408403	0.875
4851	88866	96.009121089112	0.875
4851	89028	96.125847986345	0.875
4851	89777	96.725847986345	0.25
4851	90240	97.132392132084	0.5
4851	90663	97.540631894149	0.625
4851	90795	97.650731894149	0.875
4851	91279	98.050731894149	0.625
4851	91547	98.257739700277	0.875
4851	91672	98.36987560856	0.875
4851	91682	98.379452648841	0.5
4851	91902	98.584044860348	0.875
4851	92168	98.803926001496	0.75
4851	92556	99.203926001496	0.5
4851	92767	99.410718671418	0.875
4851	93260	99.92859796577	0.375
4851	93556	100.22859796577	0.75
4851	93909	100.572536127137	0.75
4851	94419	100.988583158399	0.5
4851	94662	101.207720797808	0.875
4851	95020	101.516521319402	0.75
4851	96007	102.341604824881	0
4851	96560	102.765763768026	0.75
4851	97214	103.341604824881	-0.375
4851	97479	103.548002786864	0.75
4851	97501	103.566932891259	0.375
4851	97503	103.567407431638	0.125
4851	97505	103.567423982461	0.66666665673256
4851	98206	104.077507431638	0.125
4851	98660	104.470190896415	0.875
4851	99149	104.877507431638	0.125
4851	99408	105.086035208881	0.875
4851	100034	105.628041758302	0.375
4851	100395	105.928362325443	0.75
4851	100605	106.106742028445	0.75
4851	101077	106.521173316608	0.5
4851	101238	106.721173316608	0.875
4851	102786	108.209201002273	0.125
4851	104240	109.418668930784	0.625
4851	105477	110.418668930784	-0.125
4851	106075	110.902458210755	-0.5
4851	106151	110.928067574153	0.5
4851	106452	111.146609149723	0.625
4851	107252	111.733543107898	0.875
4851	107499	111.933543107898	0.875
4851	107622	112.044176806708	1
4851	108266	112.580781550876	0.375
4851	108506	112.785728334112	0.875
4851	109636	113.801004578097	-0.25
4851	109859	114.010691262379	0.875
4851	110298	114.424381437655	0.5
4851	110952	115.024381437655	0.375
4851	112294	116.234110737335	-0.375
4851	113081	116.85022987145	0.125
4851	113501	117.25022987145	0.5
4851	113762	117.557647103737	0.75
4851	114236	117.967747103737	0.375
4851	114442	118.167747103737	0.875
4851	114931	118.577095848924	0.625
4851	115348	118.929056708199	0.375
4851	115459	118.986724769246	0.625
4851	115634	119.13579132326	0.875
4851	116498	119.850140268854	0.125
4851	117606	120.750140268854	-0.125
4851	118927	121.663717233899	-0.25
4851	119641	122.163717233899	0.5
4851	120217	122.669990854849	0.375
4851	120630	123.071448580316	0.625
4851	120855	123.276780015447	0.875
4851	121024	123.389185364647	0.875
4851	122973	124.89751920524	0.75
4851	123153	125.089185364647	-1.125
4851	123501	125.40592349973	0.625
4851	124216	126.008154799576	0.375
4851	125435	126.915339818597	-0.125
4851	126364	127.815929324978	-0.25
4851	126553	128.022507590318	0.875
4851	126870	128.232834164604	0.625
4851	127177	128.532834164604	0.75
4851	127778	129.03796550691	0.5
4851	128672	129.838807672907	0.125
4851	128675	129.843502498912	0.125
4851	129033	130.145207061553	0.625
4851	129037	130.147533942701	0.625
4851	129691	130.750019192505	0.375
4851	129695	130.750787685744	0.375
4851	129698	130.753972705001	0.375
4851	129867	130.91286354913	-0.125
4851	129904	130.956487083079	0.875
4851	129906	130.957886172896	0.875
4851	129912	130.962433318771	0.875
4851	130261	131.259166440894	0.75
4851	130678	131.592529059965	0.625
4851	131731	132.592529059965	-0.125
4851	132039	132.792626241443	0.875
4851	132457	133.100897783664	0.75
4851	132671	133.232466517448	0.25
4851	133366	133.852798037735	0.125
4851	133674	134.170205679314	0.75
4851	134044	134.553004097615	0.875
4851	134517	134.963104097615	0.25
4851	134815	135.263104097615	0.75
4851	135079	135.466647356639	0.875
4851	135125	135.524406693674	0.875
4851	136627	136.848919913084	-0.875
4851	137085	137.348919913084	0.5
4851	137262	137.562133779935	0.875
4851	137485	137.98108148752	0.625
4851	137574	138.384553312256	0.625
4851	137599	138.57445439737	0.625
4852	132	20.21	0.2
4852	518	20.81	0.6
4852	709	21.118265554809	0.3
4852	881	21.32022230999	0.2
4852	1531	21.838955389649	0.5
4852	2077	22.321933773147	0.3
4852	2322	22.532033773147	0.2
4852	3375	23.432033773147	0.9
4852	3477	23.534470794226	0.9
4852	3876	23.839484056457	0.3
4852	4005	23.940687059234	0.5
4852	4132	24.039828341666	1
4852	4559	24.349928341666	0.3
4852	5151	24.849928341666	0.5
4852	5423	25.157479036384	0.3
4852	5870	25.561007899868	0.3
4852	6635	26.2765329553	0.7
4852	7097	26.6765329553	0.4
4852	7351	26.881407596992	0.2
4852	7596	27.078588814151	0.2
4852	8551	27.889097446947	1
4852	8649	27.981978019892	0.9
4852	8695	28.01343392283	0.8
4852	8990	28.290880182682	0.4
4852	9124	28.384587059343	0.4
4852	9636	28.89987242301	0.6
4852	9739	28.98620412586	0.6
4852	10009	29.194594628715	0.8
4852	10031	29.206624597597	0.3
4852	10246	29.422609311853	0.2
4852	10704	29.822609311853	0.4
4852	11945	30.975302886068	0.4
4852	11989	31.031583559844	1.2
4852	12558	31.583892813168	0.6
4852	13250	32.102467050881	0.5
4852	14305	33.102467050881	1
4852	14655	33.403680862924	0.3
4852	15051	33.718211153741	0.3
4852	16159	34.529565575004	0.8
4852	16601	34.929565575004	0.4
4852	16757	35.039881195844	0.1
4852	16984	35.247587134746	0.2
4852	17671	35.835095874096	0.2
4852	17896	36.018098007967	0.1
4852	18822	36.818098007967	0.8
4852	20061	37.754305188696	0.5
4852	20650	38.264405188696	0.5
4852	20908	38.464405188696	0.2
4852	21206	38.769720271234	0.3
4852	21577	39.086445809432	0.3
4852	22608	40.086445809432	1
4852	23030	40.493411009238	0.4
4852	23818	41.112145978385	0.6
4852	24224	41.512145978385	0.4
4852	24522	41.820204880445	0.3
4852	25326	42.43804416575	0.6
4852	26072	43.13804416575	0.7
4852	26760	43.745165259954	0.6
4852	26987	43.953962914524	0.2
4852	27251	44.100111692565	0.7
4852	27524	44.354508230517	0.4
4852	27715	44.508606232162	0.4
4852	27747	44.561936526233	0.2
4852	28069	44.88006411537	0.3
4852	28989	45.68006411537	0.8
4852	29372	45.988157132972	0.3
4852	29376	45.990870128779	0.3
4852	30345	46.800970128779	0.8
4852	30556	47.000970128779	0.2
4852	31891	48.202571481461	1.2
4852	32456	48.707817743154	0.5
4852	32675	48.916007906295	0.2
4852	33095	49.226559972705	0.3
4852	33347	49.426559972705	0.2
4852	33560	49.637279865273	0.2
4852	33726	49.747379865273	0.1
4852	34243	50.147379865273	0.4
4852	35069	50.875358944573	0.6
4852	35342	51.149455926068	1
4852	35353	51.18280007048	0.3
4852	35780	51.590557649593	0.4
4852	36108	51.894705992428	0.3
4852	36291	52.056715336755	0.9
4852	36318	52.092958068613	0.3
4852	36890	52.579045003971	0.5
4852	37120	52.796289532883	0.7
4852	37122	52.79737411141	0.9
4852	37632	53.210137587232	0.4
4852	38064	53.610137587232	0.4
4852	38325	53.915289873455	0.3
4852	39004	54.426020428929	0.5
4852	39975	55.126020428929	0.7
4852	40642	55.629421681537	0.5
4852	40902	55.859651855396	0.6
4852	41301	56.178129276319	0.3
4852	41840	56.678129276319	0.5
4852	42079	56.882674405886	0.2
4852	42234	57.044876051743	0.2
4852	42804	57.55434899038	1
4852	43299	57.966210730388	0.4
4852	43670	58.266210730388	0.3
4852	44256	58.766622972048	0.5
4852	44879	59.373824594472	0.6
4852	45496	59.977934069989	0.6
4852	46024	60.48421151026	0.5
4852	46405	60.79431151026	0.3
4852	47189	61.39431151026	0.6
4852	47735	61.72362892233	0.3
4852	48745	62.52362892233	0.8
4852	49004	62.732683306559	0.2
4852	49668	63.233159224704	0.4
4852	49952	63.44117725507	0.7
4852	50456	63.854833698576	0.4
4852	51461	64.754833698576	0.9
4852	51764	65.055064107704	0.3
4852	52685	65.865164107704	0.8
4852	53098	66.165164107704	0.3
4852	53435	66.478536096457	0.3
4852	54257	67.098439483067	0.6
4852	55122	67.798439483067	0.7
4852	55926	68.449677819814	0.6
4852	56163	68.606811276324	0.8
4852	56859	69.213655871964	0.6
4852	58072	70.131097696962	0.9
4852	58920	70.831097696962	0.7
4852	59206	71.037205946653	0.2
4852	59726	71.543013891284	0.5
4852	60496	72.248537103645	0.7
4852	60699	72.454078109138	0.2
4852	61212	72.957149289751	0.5
4852	61757	73.388634403582	0.9
4852	61787	73.415942855916	0.5
4852	62102	73.689023617644	0.3
4852	62940	74.399746831467	0.7
4852	63431	74.899746831467	0.5
4852	63571	75.004322354318	0.1
4852	63800	75.211317682731	0.2
4852	63898	75.307481260697	0.4
4852	64133	75.514805429681	0.2
4852	64301	75.712039681735	0.5
4852	64663	76.02355692973	0.3
4852	64861	76.22355692973	0.2
4852	65221	76.534249347581	0.3
4852	65292	76.619301561192	0.2
4852	66568	77.640796795515	1
4852	66896	77.940796795515	0.3
4852	67373	78.345261940415	0.4
4852	67672	78.64189628149	0.5
4852	67910	78.85281694955	0.5
4852	68102	79.04199628149	0.4
4852	68109	79.045364749118	0.4
4852	69191	79.85577989457	0.8
4852	69672	80.25577989457	0.4
4852	69981	80.563035238513	0.3
4852	70367	80.870341400205	0.3
4852	71110	81.487020494894	0.6
4852	72746	82.899429530669	1.2
4852	73186	83.199429530669	0.3
4852	73474	83.409529530669	0.2
4852	73749	83.609529530669	0.2
4852	74150	83.928482970978	0.3
4852	74398	84.131089444182	0.2
4852	77088	86.241189444182	2.1
4852	77674	86.741189444182	0.5
4852	77899	86.943254363104	0.2
4852	78475	87.459946034571	0.4
4852	79354	88.189194966894	0.7
4852	79760	88.489194966894	0.3
4852	79803	88.499294966894	0
4852	80232	88.899294966894	0.4