version 2
run Stability-83-20130526-18:52:39-1898
attr configname Stability
attr datetime 20130526-18:52:39
attr experiment Stability
attr inifile omnetpp.ini
attr iterationvars $0=1e-2
attr iterationvars2 "$0=1e-2, $repetition=3"
attr measurement $0=1e-2
attr network Network
attr processid 1898
attr repetition 3
attr replication #3
attr resultdir results
attr runnumber 83
attr seedset 83

vector 8147  Network.churner  inGoingSizeSig:vector  ETV
vector 8096  Network.dyn_peer[15]  lookupHopsSig:vector  ETV
vector 8097  Network.dyn_peer[15]  lookupStabilitySig:vector  ETV
vector 8098  Network.dyn_peer[15]  lookupTimeSig:vector  ETV
vector 8129  Network.dyn_peer[26]  lookupHopsSig:vector  ETV
vector 8130  Network.dyn_peer[26]  lookupStabilitySig:vector  ETV
vector 8131  Network.dyn_peer[26]  lookupTimeSig:vector  ETV
vector 8051  Network.dyn_peer[0]  lookupHopsSig:vector  ETV
vector 8052  Network.dyn_peer[0]  lookupStabilitySig:vector  ETV
vector 8053  Network.dyn_peer[0]  lookupTimeSig:vector  ETV
vector 8057  Network.dyn_peer[2]  lookupHopsSig:vector  ETV
vector 8058  Network.dyn_peer[2]  lookupStabilitySig:vector  ETV
vector 8059  Network.dyn_peer[2]  lookupTimeSig:vector  ETV
vector 8063  Network.dyn_peer[4]  lookupHopsSig:vector  ETV
vector 8064  Network.dyn_peer[4]  lookupStabilitySig:vector  ETV
vector 8065  Network.dyn_peer[4]  lookupTimeSig:vector  ETV
vector 8084  Network.dyn_peer[11]  lookupHopsSig:vector  ETV
vector 8085  Network.dyn_peer[11]  lookupStabilitySig:vector  ETV
vector 8086  Network.dyn_peer[11]  lookupTimeSig:vector  ETV
vector 8087  Network.dyn_peer[12]  lookupHopsSig:vector  ETV
vector 8088  Network.dyn_peer[12]  lookupStabilitySig:vector  ETV
vector 8089  Network.dyn_peer[12]  lookupTimeSig:vector  ETV
vector 8099  Network.dyn_peer[16]  lookupHopsSig:vector  ETV
vector 8100  Network.dyn_peer[16]  lookupStabilitySig:vector  ETV
vector 8101  Network.dyn_peer[16]  lookupTimeSig:vector  ETV
vector 8138  Network.dyn_peer[29]  lookupHopsSig:vector  ETV
vector 8139  Network.dyn_peer[29]  lookupStabilitySig:vector  ETV
vector 8140  Network.dyn_peer[29]  lookupTimeSig:vector  ETV
vector 8141  Network.dyn_peer[30]  lookupHopsSig:vector  ETV
vector 8142  Network.dyn_peer[30]  lookupStabilitySig:vector  ETV
vector 8143  Network.dyn_peer[30]  lookupTimeSig:vector  ETV
vector 8144  Network.dyn_peer[31]  lookupHopsSig:vector  ETV
vector 8145  Network.dyn_peer[31]  lookupStabilitySig:vector  ETV
vector 8146  Network.dyn_peer[31]  lookupTimeSig:vector  ETV
vector 8066  Network.dyn_peer[5]  lookupHopsSig:vector  ETV
vector 8067  Network.dyn_peer[5]  lookupStabilitySig:vector  ETV
vector 8068  Network.dyn_peer[5]  lookupTimeSig:vector  ETV
vector 8069  Network.dyn_peer[6]  lookupHopsSig:vector  ETV
vector 8070  Network.dyn_peer[6]  lookupStabilitySig:vector  ETV
vector 8071  Network.dyn_peer[6]  lookupTimeSig:vector  ETV
vector 8072  Network.dyn_peer[7]  lookupHopsSig:vector  ETV
vector 8073  Network.dyn_peer[7]  lookupStabilitySig:vector  ETV
vector 8074  Network.dyn_peer[7]  lookupTimeSig:vector  ETV
vector 8090  Network.dyn_peer[13]  lookupHopsSig:vector  ETV
vector 8091  Network.dyn_peer[13]  lookupStabilitySig:vector  ETV
vector 8092  Network.dyn_peer[13]  lookupTimeSig:vector  ETV
vector 8093  Network.dyn_peer[14]  lookupHopsSig:vector  ETV
vector 8094  Network.dyn_peer[14]  lookupStabilitySig:vector  ETV
vector 8095  Network.dyn_peer[14]  lookupTimeSig:vector  ETV
vector 8108  Network.dyn_peer[19]  lookupHopsSig:vector  ETV
vector 8109  Network.dyn_peer[19]  lookupStabilitySig:vector  ETV
vector 8110  Network.dyn_peer[19]  lookupTimeSig:vector  ETV
vector 8123  Network.dyn_peer[24]  lookupHopsSig:vector  ETV
vector 8124  Network.dyn_peer[24]  lookupStabilitySig:vector  ETV
vector 8125  Network.dyn_peer[24]  lookupTimeSig:vector  ETV
vector 8132  Network.dyn_peer[27]  lookupHopsSig:vector  ETV
vector 8133  Network.dyn_peer[27]  lookupStabilitySig:vector  ETV
vector 8134  Network.dyn_peer[27]  lookupTimeSig:vector  ETV
vector 8054  Network.dyn_peer[1]  lookupHopsSig:vector  ETV
vector 8055  Network.dyn_peer[1]  lookupStabilitySig:vector  ETV
vector 8056  Network.dyn_peer[1]  lookupTimeSig:vector  ETV
vector 8060  Network.dyn_peer[3]  lookupHopsSig:vector  ETV
vector 8061  Network.dyn_peer[3]  lookupStabilitySig:vector  ETV
vector 8062  Network.dyn_peer[3]  lookupTimeSig:vector  ETV
vector 8075  Network.dyn_peer[8]  lookupHopsSig:vector  ETV
vector 8076  Network.dyn_peer[8]  lookupStabilitySig:vector  ETV
vector 8077  Network.dyn_peer[8]  lookupTimeSig:vector  ETV
vector 8078  Network.dyn_peer[9]  lookupHopsSig:vector  ETV
vector 8079  Network.dyn_peer[9]  lookupStabilitySig:vector  ETV
vector 8080  Network.dyn_peer[9]  lookupTimeSig:vector  ETV
vector 8081  Network.dyn_peer[10]  lookupHopsSig:vector  ETV
vector 8082  Network.dyn_peer[10]  lookupStabilitySig:vector  ETV
vector 8083  Network.dyn_peer[10]  lookupTimeSig:vector  ETV
vector 8102  Network.dyn_peer[17]  lookupHopsSig:vector  ETV
vector 8103  Network.dyn_peer[17]  lookupStabilitySig:vector  ETV
vector 8104  Network.dyn_peer[17]  lookupTimeSig:vector  ETV
vector 8114  Network.dyn_peer[21]  lookupHopsSig:vector  ETV
vector 8115  Network.dyn_peer[21]  lookupStabilitySig:vector  ETV
vector 8116  Network.dyn_peer[21]  lookupTimeSig:vector  ETV
vector 8120  Network.dyn_peer[23]  lookupHopsSig:vector  ETV
vector 8121  Network.dyn_peer[23]  lookupStabilitySig:vector  ETV
vector 8122  Network.dyn_peer[23]  lookupTimeSig:vector  ETV
vector 8126  Network.dyn_peer[25]  lookupHopsSig:vector  ETV
vector 8127  Network.dyn_peer[25]  lookupStabilitySig:vector  ETV
vector 8128  Network.dyn_peer[25]  lookupTimeSig:vector  ETV
vector 8135  Network.dyn_peer[28]  lookupHopsSig:vector  ETV
vector 8136  Network.dyn_peer[28]  lookupStabilitySig:vector  ETV
vector 8137  Network.dyn_peer[28]  lookupTimeSig:vector  ETV
vector 8111  Network.dyn_peer[20]  lookupHopsSig:vector  ETV
vector 8112  Network.dyn_peer[20]  lookupStabilitySig:vector  ETV
vector 8113  Network.dyn_peer[20]  lookupTimeSig:vector  ETV
vector 8105  Network.dyn_peer[18]  lookupHopsSig:vector  ETV
vector 8106  Network.dyn_peer[18]  lookupStabilitySig:vector  ETV
vector 8107  Network.dyn_peer[18]  lookupTimeSig:vector  ETV
vector 8117  Network.dyn_peer[22]  lookupHopsSig:vector  ETV
vector 8118  Network.dyn_peer[22]  lookupStabilitySig:vector  ETV
vector 8119  Network.dyn_peer[22]  lookupTimeSig:vector  ETV
8051	135	20.10001	1
8051	730	21.008795443711	8
8051	1049	21.314423502358	2
8051	1658	21.814533502358	5
8051	2486	22.514533502358	7
8051	3029	22.923514349035	3
8051	3562	23.425559747678	4
8051	4298	24.027213567144	7
8051	4812	24.520339190986	1
8051	5065	24.727213567144	8
8051	5388	24.932332403839	2
8051	5821	25.323620585659	1
8051	6564	25.923730585659	6
8051	7458	26.623730585659	6
8051	7731	26.828884769468	2
8051	8101	27.128994769468	3
8051	8754	27.628994769468	4
8051	9357	28.13315185551	4
8051	9400	28.148480526271	4
8051	9632	28.352716095272	2
8051	10058	28.752716095272	3
8051	10257	28.955261961982	1
8051	10411	29.060615822413	1
8051	10666	29.360615822413	2
8051	11749	30.360273706051	3
8051	12174	30.689573338557	2
8051	12468	30.899272965249	1
8051	13228	31.513147176965	5
8051	13252	31.516897399439	5
8051	13498	31.718756703378	2
8051	13709	31.918756703378	1
8051	13922	32.123473208972	1
8051	14466	32.631504935556	4
8051	14696	32.849332474815	1
8051	15709	33.651985085981	9
8051	15724	33.680412564676	7
8051	15907	33.858645961938	1
8051	16347	34.263981621236	3
8051	16444	34.381419461092	6
8051	16504	34.415570113376	3
8051	16935	34.816300733477	4
8051	17201	35.024947934722	2
8051	17833	35.533923863788	5
8051	18543	36.133923863788	5
8051	18951	36.444336176578	2
8051	19259	36.746654704388	3
8051	19485	37.046654704388	2
8051	20362	37.854534130192	7
8051	20682	38.217209859259	6
8051	20907	38.360738827074	4
8051	21059	38.467710463712	1
8051	21628	38.967710463712	4
8051	22800	39.977193122275	10
8051	23283	40.38416184235	3
8051	24010	41.08427184235	7
8051	24474	41.48427184235	4
8051	24599	41.63793569537	1
8051	24714	41.685147549162	1
8051	24936	41.891502652658	1
8051	25101	41.991639981427	2
8051	25352	42.191639981427	1
8051	25673	42.492776750678	2
8051	26168	42.900283834751	5
8051	26374	43.100283834751	1
8051	27508	44.110202093366	9
8051	28311	44.808664190084	2
8051	28621	45.017454452879	10
8051	29538	45.825901321083	8
8051	30672	46.825901321083	10
8051	31387	47.432352904063	6
8051	31410	47.48253674178	2
8051	31704	47.69027106345	3
8051	32559	48.39027106345	6
8051	33338	48.991475275201	4
8051	33344	48.993099386187	7
8051	33556	49.106631057711	1
8051	33566	49.113798185817	1
8051	33772	49.310232387547	1
8051	34356	49.810613506673	7
8051	35211	50.610613506673	8
8051	36669	51.642935606455	3
8051	37665	52.542935606455	10
8051	38062	52.943235215936	4
8051	38642	53.448368959713	4
8051	38914	53.650817298432	1
8051	39533	54.150927298432	5
8051	39829	54.350927298432	1
8051	39984	54.466649235437	1
8051	40327	54.766759235437	3
8051	41326	55.667174816037	5
8051	42150	56.367174816037	6
8051	42392	56.5799045439	1
8051	42661	56.784674467298	1
8051	42991	57.061155898894	2
8051	43041	57.100764089494	2
8051	43879	57.701339295613	6
8051	45958	59.30850097619	10
8051	46212	59.50850097619	1
8051	46484	59.727274504905	2
8051	46768	60.013082767569	5
8051	47487	60.722037629909	8
8051	48448	61.522037629909	7
8051	48708	61.731286292506	1
8051	48960	61.938453519383	1
8051	49374	62.238563519383	3
8051	49777	62.538563519383	2
8051	50473	63.046740302582	4
8051	50590	63.129063009302	3
8051	50815	63.255345318192	1
8051	51116	63.436163711295	2
8051	52173	64.241147719679	8
8051	52648	64.741147719679	4
8051	52863	64.947958243493	1
8051	53437	65.457928303172	5
8051	54366	66.157928303172	6
8051	54877	66.564886562939	3
8051	55261	66.868952455002	2
8051	56239	67.770901884835	8
8051	56581	68.071729982773	3
8051	57248	68.571729982773	4
8051	57636	68.879356323248	2
8051	58249	69.402840059672	4
8051	58666	69.682448550054	0
8051	59675	70.482448550054	7
8051	60304	70.982558550054	5
8051	60814	71.482558550054	4
8051	61623	72.185061420865	8
8051	62812	73.244587566855	1
8051	63330	73.649298478903	4
8051	63836	74.049298478903	3
8051	64241	74.45578021859	3
8051	65138	75.162233728388	7
8051	65419	75.417902529368	4
8051	65656	75.666701889143	5
8051	65760	75.776121327691	1
8051	66729	76.676121327691	10
8051	67351	77.176231327691	5
8051	68177	77.876231327691	6
8051	68572	78.185809287534	2
8051	69106	78.585919287534	4
8051	69824	79.206231058778	4
8051	70253	79.609366676888	10
8051	70267	79.621850465007	3
8051	70327	79.669046908633	3
8051	70426	79.750256282107	5
8051	70602	79.874348092534	1
8051	71260	80.374458092534	5
8051	71833	80.774458092534	3
8051	72179	81.086683226381	2
8051	73301	82.096401716001	10
8051	73554	82.299411365539	1
8051	73774	82.469999840284	1
8051	73923	82.572596530906	1
8051	74678	83.172596530906	5
8051	75079	83.582163969751	3
8051	75286	83.786157828527	1
8051	75292	83.790831036726	1
8051	75309	83.792483712108	0
8051	75658	84.092483712108	2
8051	75671	84.09696617481	2
8051	75914	84.296987363568	1
8051	75916	84.30032524126	1
8051	76039	84.433596447795	1
8051	76126	84.500448026603	1
8051	76128	84.501174951464	1
8051	76142	84.501284951464	0
8051	76546	84.901284951464	3
8051	76757	85.104123129093	1
8051	77184	85.49045445844	3
8051	79253	87.09056445844	17
8051	80633	88.19056445844	11
8051	81162	88.592303141448	3
8051	81418	88.788477386058	4
8051	81686	88.995526795938	3
8051	82311	89.502906204859	5
8051	82881	90.102906204859	5
8051	83226	90.449740296369	1
8051	83675	90.854678061164	3
8051	83899	91.058599137467	1
8051	84144	91.267160047901	1
8051	84383	91.473626274604	2
8051	85080	92.076488105864	6
8051	85493	92.476488105864	3
8051	85797	92.785678056373	2
8051	85807	92.798523109917	1
8051	86161	93.091732057038	3
8051	86322	93.204319303576	4
8051	87061	93.807507526991	6
8051	87897	94.507507526991	6
8051	88135	94.71683034114	1
8051	88793	95.346408318166	2
8051	89595	95.946408318166	5
8051	91447	97.34851202049	15
8051	91991	97.74851202049	3
8051	92216	97.950552905944	1
8051	92998	98.559289578212	6
8051	93203	98.741817079286	6
8051	93577	99.05124620069	3
8051	94145	99.45124620069	3
8051	95582	100.55135620069	12
8051	96381	101.35135620069	8
8051	96547	101.558104872237	1
8051	96813	101.864030731244	2
8051	97466	102.470605708249	6
8051	98743	103.570605708249	11
8051	99760	104.471261388394	8
8051	100126	104.785042449898	2
8051	101463	105.817325826791	2
8051	101986	106.158872539344	3
8051	102154	106.294087039237	14
8051	102774	106.896099791387	6
8051	103058	107.196099791387	2
8051	103492	107.597165834398	3
8051	105315	109.102157873115	18
8051	106000	109.702157873115	5
8051	106622	110.216996264057	5
8051	106984	110.507718165169	8
8051	107270	110.808009556898	2
8051	107372	110.93768805526	7
8051	107452	111.011560607927	1
8051	107825	111.314557150081	3
8051	108220	111.614557150081	2
8051	108522	111.822195985999	1
8051	108775	112.023776545947	1
8051	110202	113.232280392336	13
8051	110436	113.432280392336	1
8051	110771	113.744458360738	2
8051	111225	114.171442890375	3
8051	111638	114.57651607879	4
8051	112160	115.07651607879	4
8051	112734	115.578505377298	4
8051	113106	115.885296747615	2
8051	113519	116.169255355425	7
8051	114053	116.573958471933	4
8051	116056	118.373958471933	20
8051	116142	118.451670293746	1
8051	117051	119.25820892691	8
8051	117348	119.55820892691	2
8051	117875	119.959026037655	3
8051	117973	120.034885281648	3
8051	118977	120.83772363316	9
8051	119618	121.343438679484	4
8051	120426	121.97321892369	3
8051	121478	122.87321892369	9
8051	122764	123.876102034551	10
8051	123837	124.78425410425	9
8051	124415	125.38425410425	5
8051	124727	125.645317502356	2
8051	125726	126.351203085658	9
8051	126109	126.651203085658	2
8051	126515	126.91675107008	1
8051	126571	126.954558578812	3
8051	127354	127.563788401637	6
8051	128443	128.555870195278	5
8051	128759	128.855870195278	2
8051	129229	129.256841194182	3
8051	129658	129.579601821872	1
8051	130007	129.861326753724	5
8051	130287	130.086958853004	4
8051	131150	130.794508697179	8
8051	131796	131.38505458002	3
8051	131805	131.394508697179	6
8051	132584	132.011354759003	2
8051	132920	132.311354759003	2
8051	133692	133.021569374709	6
8051	133971	133.263067605311	2
8051	134421	133.669265185668	3
8051	134941	134.170617809001	4
8051	135135	134.32585462157	4
8051	135142	134.328466743477	12
8052	135	20.10001	0.875
8052	730	21.008795443711	0
8052	1049	21.314423502358	0.75
8052	1658	21.814533502358	0.375
8052	2486	22.514533502358	0.125
8052	3029	22.923514349035	0.625
8052	3562	23.425559747678	0.5
8052	4298	24.027213567144	0.125
8052	4812	24.520339190986	0.875
8052	5065	24.727213567144	0
8052	5388	24.932332403839	0.75
8052	5821	25.323620585659	0.875
8052	6564	25.923730585659	0.25
8052	7458	26.623730585659	0.25
8052	7731	26.828884769468	0.75
8052	8101	27.128994769468	0.625
8052	8754	27.628994769468	0.5
8052	9357	28.13315185551	0.5
8052	9400	28.148480526271	0.5
8052	9632	28.352716095272	0.75
8052	10058	28.752716095272	0.625
8052	10257	28.955261961982	0.875
8052	10411	29.060615822413	0.875
8052	10666	29.360615822413	0.75
8052	11749	30.360273706051	0.625
8052	12174	30.689573338557	0.75
8052	12468	30.899272965249	0.875
8052	13228	31.513147176965	0.375
8052	13252	31.516897399439	0.375
8052	13498	31.718756703378	0.75
8052	13709	31.918756703378	0.875
8052	13922	32.123473208972	0.875
8052	14466	32.631504935556	0.5
8052	14696	32.849332474815	0.875
8052	15709	33.651985085981	-0.125
8052	15724	33.680412564676	0.125
8052	15907	33.858645961938	0.875
8052	16347	34.263981621236	0.625
8052	16444	34.381419461092	0.25
8052	16504	34.415570113376	0.625
8052	16935	34.816300733477	0.5
8052	17201	35.024947934722	0.75
8052	17833	35.533923863788	0.375
8052	18543	36.133923863788	0.375
8052	18951	36.444336176578	0.75
8052	19259	36.746654704388	0.625
8052	19485	37.046654704388	0.75
8052	20362	37.854534130192	0.125
8052	20682	38.217209859259	0.25
8052	20907	38.360738827074	0.5
8052	21059	38.467710463712	0.875
8052	21628	38.967710463712	0.5
8052	22800	39.977193122275	-0.25
8052	23283	40.38416184235	0.625
8052	24010	41.08427184235	0.125
8052	24474	41.48427184235	0.5
8052	24599	41.63793569537	0.875
8052	24714	41.685147549162	0.875
8052	24936	41.891502652658	0.875
8052	25101	41.991639981427	0.75
8052	25352	42.191639981427	0.875
8052	25673	42.492776750678	0.75
8052	26168	42.900283834751	0.375
8052	26374	43.100283834751	0.875
8052	27508	44.110202093366	-0.125
8052	28311	44.808664190084	0.75
8052	28621	45.017454452879	-0.25
8052	29538	45.825901321083	0
8052	30672	46.825901321083	-0.25
8052	31387	47.432352904063	0.25
8052	31410	47.48253674178	0.75
8052	31704	47.69027106345	0.625
8052	32559	48.39027106345	0.25
8052	33338	48.991475275201	0.5
8052	33344	48.993099386187	0.125
8052	33556	49.106631057711	0.875
8052	33566	49.113798185817	0.875
8052	33772	49.310232387547	0.875
8052	34356	49.810613506673	0.125
8052	35211	50.610613506673	0
8052	36669	51.642935606455	0.625
8052	37665	52.542935606455	-0.25
8052	38062	52.943235215936	0.5
8052	38642	53.448368959713	0.5
8052	38914	53.650817298432	0.875
8052	39533	54.150927298432	0.375
8052	39829	54.350927298432	0.875
8052	39984	54.466649235437	0.875
8052	40327	54.766759235437	0.625
8052	41326	55.667174816037	0.375
8052	42150	56.367174816037	0.25
8052	42392	56.5799045439	0.875
8052	42661	56.784674467298	0.875
8052	42991	57.061155898894	0.75
8052	43041	57.100764089494	0.75
8052	43879	57.701339295613	0.25
8052	45958	59.30850097619	-0.25
8052	46212	59.50850097619	0.875
8052	46484	59.727274504905	0.75
8052	46768	60.013082767569	0.375
8052	47487	60.722037629909	0
8052	48448	61.522037629909	0.125
8052	48708	61.731286292506	0.875
8052	48960	61.938453519383	0.875
8052	49374	62.238563519383	0.625
8052	49777	62.538563519383	0.75
8052	50473	63.046740302582	0.5
8052	50590	63.129063009302	0.625
8052	50815	63.255345318192	0.875
8052	51116	63.436163711295	0.75
8052	52173	64.241147719679	0
8052	52648	64.741147719679	0.5
8052	52863	64.947958243493	0.875
8052	53437	65.457928303172	0.375
8052	54366	66.157928303172	0.25
8052	54877	66.564886562939	0.625
8052	55261	66.868952455002	0.75
8052	56239	67.770901884835	0
8052	56581	68.071729982773	0.625
8052	57248	68.571729982773	0.5
8052	57636	68.879356323248	0.75
8052	58249	69.402840059672	0.5
8052	58666	69.682448550054	1
8052	59675	70.482448550054	0.125
8052	60304	70.982558550054	0.375
8052	60814	71.482558550054	0.5
8052	61623	72.185061420865	0
8052	62812	73.244587566855	0.875
8052	63330	73.649298478903	0.5
8052	63836	74.049298478903	0.625
8052	64241	74.45578021859	0.625
8052	65138	75.162233728388	0.125
8052	65419	75.417902529368	0.5
8052	65656	75.666701889143	0.375
8052	65760	75.776121327691	0.875
8052	66729	76.676121327691	-0.25
8052	67351	77.176231327691	0.375
8052	68177	77.876231327691	0.25
8052	68572	78.185809287534	0.75
8052	69106	78.585919287534	0.5
8052	69824	79.206231058778	0.5
8052	70253	79.609366676888	-0.25
8052	70267	79.621850465007	0.625
8052	70327	79.669046908633	0.625
8052	70426	79.750256282107	0.375
8052	70602	79.874348092534	0.875
8052	71260	80.374458092534	0.375
8052	71833	80.774458092534	0.625
8052	72179	81.086683226381	0.75
8052	73301	82.096401716001	-0.25
8052	73554	82.299411365539	0.875
8052	73774	82.469999840284	0.875
8052	73923	82.572596530906	0.875
8052	74678	83.172596530906	0.375
8052	75079	83.582163969751	0.625
8052	75286	83.786157828527	0.875
8052	75292	83.790831036726	0.875
8052	75309	83.792483712108	1
8052	75658	84.092483712108	0.75
8052	75671	84.09696617481	0.75
8052	75914	84.296987363568	0.875
8052	75916	84.30032524126	0.875
8052	76039	84.433596447795	0.875
8052	76126	84.500448026603	0.875
8052	76128	84.501174951464	0.875
8052	76142	84.501284951464	1
8052	76546	84.901284951464	0.625
8052	76757	85.104123129093	0.875
8052	77184	85.49045445844	0.625
8052	79253	87.09056445844	-1.125
8052	80633	88.19056445844	-0.375
8052	81162	88.592303141448	0.625
8052	81418	88.788477386058	0.5
8052	81686	88.995526795938	0.625
8052	82311	89.502906204859	0.375
8052	82881	90.102906204859	0.375
8052	83226	90.449740296369	0.875
8052	83675	90.854678061164	0.625
8052	83899	91.058599137467	0.875
8052	84144	91.267160047901	0.875
8052	84383	91.473626274604	0.75
8052	85080	92.076488105864	0.25
8052	85493	92.476488105864	0.625
8052	85797	92.785678056373	0.75
8052	85807	92.798523109917	0.875
8052	86161	93.091732057038	0.625
8052	86322	93.204319303576	0.5
8052	87061	93.807507526991	0.25
8052	87897	94.507507526991	0.25
8052	88135	94.71683034114	0.875
8052	88793	95.346408318166	0.75
8052	89595	95.946408318166	0.375
8052	91447	97.34851202049	-0.875
8052	91991	97.74851202049	0.625
8052	92216	97.950552905944	0.875
8052	92998	98.559289578212	0.25
8052	93203	98.741817079286	0.25
8052	93577	99.05124620069	0.625
8052	94145	99.45124620069	0.625
8052	95582	100.55135620069	-0.5
8052	96381	101.35135620069	0
8052	96547	101.558104872237	0.875
8052	96813	101.864030731244	0.75
8052	97466	102.470605708249	0.25
8052	98743	103.570605708249	-0.375
8052	99760	104.471261388394	0
8052	100126	104.785042449898	0.75
8052	101463	105.817325826791	0.75
8052	101986	106.158872539344	0.625
8052	102154	106.294087039237	-0.75
8052	102774	106.896099791387	0.25
8052	103058	107.196099791387	0.75
8052	103492	107.597165834398	0.625
8052	105315	109.102157873115	-1.25
8052	106000	109.702157873115	0.375
8052	106622	110.216996264057	0.375
8052	106984	110.507718165169	0
8052	107270	110.808009556898	0.75
8052	107372	110.93768805526	0.125
8052	107452	111.011560607927	0.875
8052	107825	111.314557150081	0.625
8052	108220	111.614557150081	0.75
8052	108522	111.822195985999	0.875
8052	108775	112.023776545947	0.875
8052	110202	113.232280392336	-0.625
8052	110436	113.432280392336	0.875
8052	110771	113.744458360738	0.75
8052	111225	114.171442890375	0.625
8052	111638	114.57651607879	0.5
8052	112160	115.07651607879	0.5
8052	112734	115.578505377298	0.5
8052	113106	115.885296747615	0.75
8052	113519	116.169255355425	0.125
8052	114053	116.573958471933	0.5
8052	116056	118.373958471933	-1.5
8052	116142	118.451670293746	0.875
8052	117051	119.25820892691	0
8052	117348	119.55820892691	0.75
8052	117875	119.959026037655	0.625
8052	117973	120.034885281648	0.625
8052	118977	120.83772363316	-0.125
8052	119618	121.343438679484	0.5
8052	120426	121.97321892369	0.625
8052	121478	122.87321892369	-0.125
8052	122764	123.876102034551	-0.25
8052	123837	124.78425410425	-0.125
8052	124415	125.38425410425	0.375
8052	124727	125.645317502356	0.75
8052	125726	126.351203085658	-0.125
8052	126109	126.651203085658	0.75
8052	126515	126.91675107008	0.875
8052	126571	126.954558578812	0.625
8052	127354	127.563788401637	0.25
8052	128443	128.555870195278	0.375
8052	128759	128.855870195278	0.75
8052	129229	129.256841194182	0.625
8052	129658	129.579601821872	0.875
8052	130007	129.861326753724	0.375
8052	130287	130.086958853004	0.5
8052	131150	130.794508697179	0
8052	131796	131.38505458002	0.625
8052	131805	131.394508697179	0.25
8052	132584	132.011354759003	0.75
8052	132920	132.311354759003	0.75
8052	133692	133.021569374709	0.25
8052	133971	133.263067605311	0.75
8052	134421	133.669265185668	0.625
8052	134941	134.170617809001	0.5
8052	135135	134.32585462157	0.5
8052	135142	134.328466743477	-0.5
8053	135	20.10001	0.1
8053	730	21.008795443711	0.9
8053	1049	21.314423502358	0.3
8053	1658	21.814533502358	0.5
8053	2486	22.514533502358	0.7
8053	3029	22.923514349035	0.4
8053	3562	23.425559747678	0.5
8053	4298	24.027213567144	0.6
8053	4812	24.520339190986	0.2
8053	5065	24.727213567144	0.7
8053	5388	24.932332403839	0.2
8053	5821	25.323620585659	0.2
8053	6564	25.923730585659	0.6
8053	7458	26.623730585659	0.7
8053	7731	26.828884769468	0.3
8053	8101	27.128994769468	0.3
8053	8754	27.628994769468	0.5
8053	9357	28.13315185551	0.5
8053	9400	28.148480526271	0.5
8053	9632	28.352716095272	0.2
8053	10058	28.752716095272	0.4
8053	10257	28.955261961982	0.2
8053	10411	29.060615822413	0.1
8053	10666	29.360615822413	0.3
8053	11749	30.360273706051	0.3
8053	12174	30.689573338557	0.3
8053	12468	30.899272965249	0.2
8053	13228	31.513147176965	0.6
8053	13252	31.516897399439	0.6
8053	13498	31.718756703378	0.2
8053	13709	31.918756703378	0.2
8053	13922	32.123473208972	0.2
8053	14466	32.631504935556	0.5
8053	14696	32.849332474815	0.2
8053	15709	33.651985085981	0.8
8053	15724	33.680412564676	0.7
8053	15907	33.858645961938	0.2
8053	16347	34.263981621236	0.4
8053	16444	34.381419461092	0.7
8053	16504	34.415570113376	0.4
8053	16935	34.816300733477	0.4
8053	17201	35.024947934722	0.2
8053	17833	35.533923863788	0.5
8053	18543	36.133923863788	0.6
8053	18951	36.444336176578	0.3
8053	19259	36.746654704388	0.3
8053	19485	37.046654704388	0.3
8053	20362	37.854534130192	0.8
8053	20682	38.217209859259	0.7
8053	20907	38.360738827074	0.5
8053	21059	38.467710463712	0.1
8053	21628	38.967710463712	0.5
8053	22800	39.977193122275	1
8053	23283	40.38416184235	0.4
8053	24010	41.08427184235	0.7
8053	24474	41.48427184235	0.4
8053	24599	41.63793569537	0.2
8053	24714	41.685147549162	0.2
8053	24936	41.891502652658	0.2
8053	25101	41.991639981427	0.1
8053	25352	42.191639981427	0.2
8053	25673	42.492776750678	0.3
8053	26168	42.900283834751	0.4
8053	26374	43.100283834751	0.2
8053	27508	44.110202093366	1
8053	28311	44.808664190084	0.3
8053	28621	45.017454452879	0.9
8053	29538	45.825901321083	0.8
8053	30672	46.825901321083	1
8053	31387	47.432352904063	0.6
8053	31410	47.48253674178	0.3
8053	31704	47.69027106345	0.2
8053	32559	48.39027106345	0.7
8053	33338	48.991475275201	0.5
8053	33344	48.993099386187	0.6
8053	33556	49.106631057711	0.1
8053	33566	49.113798185817	0.1
8053	33772	49.310232387547	0.2
8053	34356	49.810613506673	0.5
8053	35211	50.610613506673	0.8
8053	36669	51.642935606455	0.3
8053	37665	52.542935606455	0.9
8053	38062	52.943235215936	0.4
8053	38642	53.448368959713	0.5
8053	38914	53.650817298432	0.2
8053	39533	54.150927298432	0.5
8053	39829	54.350927298432	0.2
8053	39984	54.466649235437	0.2
8053	40327	54.766759235437	0.3
8053	41326	55.667174816037	0.5
8053	42150	56.367174816037	0.7
8053	42392	56.5799045439	0.2
8053	42661	56.784674467298	0.2
8053	42991	57.061155898894	0.3
8053	43041	57.100764089494	0.3
8053	43879	57.701339295613	0.6
8053	45958	59.30850097619	0.9
8053	46212	59.50850097619	0.2
8053	46484	59.727274504905	0.3
8053	46768	60.013082767569	0.5
8053	47487	60.722037629909	0.7
8053	48448	61.522037629909	0.8
8053	48708	61.731286292506	0.2
8053	48960	61.938453519383	0.2
8053	49374	62.238563519383	0.3
8053	49777	62.538563519383	0.3
8053	50473	63.046740302582	0.5
8053	50590	63.129063009302	0.4
8053	50815	63.255345318192	0.2
8053	51116	63.436163711295	0.3
8053	52173	64.241147719679	0.8
8053	52648	64.741147719679	0.5
8053	52863	64.947958243493	0.2
8053	53437	65.457928303172	0.5
8053	54366	66.157928303172	0.7
8053	54877	66.564886562939	0.4
8053	55261	66.868952455002	0.3
8053	56239	67.770901884835	0.9
8053	56581	68.071729982773	0.3
8053	57248	68.571729982773	0.5
8053	57636	68.879356323248	0.3
8053	58249	69.402840059672	0.5
8053	58666	69.682448550054	0
8053	59675	70.482448550054	0.8
8053	60304	70.982558550054	0.5
8053	60814	71.482558550054	0.5
8053	61623	72.185061420865	0.7
8053	62812	73.244587566855	0.2
8053	63330	73.649298478903	0.4
8053	63836	74.049298478903	0.4
8053	64241	74.45578021859	0.4
8053	65138	75.162233728388	0.7
8053	65419	75.417902529368	0.5
8053	65656	75.666701889143	0.5
8053	65760	75.776121327691	0.1
8053	66729	76.676121327691	0.9
8053	67351	77.176231327691	0.5
8053	68177	77.876231327691	0.7
8053	68572	78.185809287534	0.3
8053	69106	78.585919287534	0.4
8053	69824	79.206231058778	0.4
8053	70253	79.609366676888	1
8053	70267	79.621850465007	0.4
8053	70327	79.669046908633	0.4
8053	70426	79.750256282107	0.6
8053	70602	79.874348092534	0.2
8053	71260	80.374458092534	0.5
8053	71833	80.774458092534	0.4
8053	72179	81.086683226381	0.3
8053	73301	82.096401716001	1
8053	73554	82.299411365539	0.2
8053	73774	82.469999840284	0.2
8053	73923	82.572596530906	0.1
8053	74678	83.172596530906	0.6
8053	75079	83.582163969751	0.4
8053	75286	83.786157828527	0.2
8053	75292	83.790831036726	0.2
8053	75309	83.792483712108	0
8053	75658	84.092483712108	0.3
8053	75671	84.09696617481	0.3
8053	75914	84.296987363568	0.2
8053	75916	84.30032524126	0.2
8053	76039	84.433596447795	0.2
8053	76126	84.500448026603	0.2
8053	76128	84.501174951464	0.2
8053	76142	84.501284951464	0
8053	76546	84.901284951464	0.4
8053	76757	85.104123129093	0.2
8053	77184	85.49045445844	0.4
8053	79253	87.09056445844	1.6
8053	80633	88.19056445844	1.1
8053	81162	88.592303141448	0.4
8053	81418	88.788477386058	0.4
8053	81686	88.995526795938	0.4
8053	82311	89.502906204859	0.5
8053	82881	90.102906204859	0.6
8053	83226	90.449740296369	0.2
8053	83675	90.854678061164	0.4
8053	83899	91.058599137467	0.2
8053	84144	91.267160047901	0.2
8053	84383	91.473626274604	0.2
8053	85080	92.076488105864	0.6
8053	85493	92.476488105864	0.4
8053	85797	92.785678056373	0.3
8053	85807	92.798523109917	0.2
8053	86161	93.091732057038	0.3
8053	86322	93.204319303576	0.4
8053	87061	93.807507526991	0.6
8053	87897	94.507507526991	0.7
8053	88135	94.71683034114	0.2
8053	88793	95.346408318166	0.2
8053	89595	95.946408318166	0.6
8053	91447	97.34851202049	1.4
8053	91991	97.74851202049	0.4
8053	92216	97.950552905944	0.2
8053	92998	98.559289578212	0.6
8053	93203	98.741817079286	0.7
8053	93577	99.05124620069	0.3
8053	94145	99.45124620069	0.4
8053	95582	100.55135620069	1.1
8053	96381	101.35135620069	0.8
8053	96547	101.558104872237	0.2
8053	96813	101.864030731244	0.3
8053	97466	102.470605708249	0.6
8053	98743	103.570605708249	1.1
8053	99760	104.471261388394	0.9
8053	100126	104.785042449898	0.3
8053	101463	105.817325826791	0.3
8053	101986	106.158872539344	0.3
8053	102154	106.294087039237	1.5
8053	102774	106.896099791387	0.6
8053	103058	107.196099791387	0.3
8053	103492	107.597165834398	0.4
8053	105315	109.102157873115	1.5
8053	106000	109.702157873115	0.6
8053	106622	110.216996264057	0.6
8053	106984	110.507718165169	0.8
8053	107270	110.808009556898	0.3
8053	107372	110.93768805526	0.7
8053	107452	111.011560607927	0.2
8053	107825	111.314557150081	0.3
8053	108220	111.614557150081	0.3