version 2
run Stability-5-20130526-18:47:57-1898
attr configname Stability
attr datetime 20130526-18:47:57
attr experiment Stability
attr inifile omnetpp.ini
attr iterationvars $0=1e6
attr iterationvars2 "$0=1e6, $repetition=5"
attr measurement $0=1e6
attr network Network
attr processid 1898
attr repetition 5
attr replication #5
attr resultdir results
attr runnumber 5
attr seedset 5

vector 581  Network.churner  inGoingSizeSig:vector  ETV
vector 485  Network.dyn_peer[0]  lookupHopsSig:vector  ETV
vector 486  Network.dyn_peer[0]  lookupStabilitySig:vector  ETV
vector 487  Network.dyn_peer[0]  lookupTimeSig:vector  ETV
vector 488  Network.dyn_peer[1]  lookupHopsSig:vector  ETV
vector 489  Network.dyn_peer[1]  lookupStabilitySig:vector  ETV
vector 490  Network.dyn_peer[1]  lookupTimeSig:vector  ETV
vector 491  Network.dyn_peer[2]  lookupHopsSig:vector  ETV
vector 492  Network.dyn_peer[2]  lookupStabilitySig:vector  ETV
vector 493  Network.dyn_peer[2]  lookupTimeSig:vector  ETV
vector 494  Network.dyn_peer[3]  lookupHopsSig:vector  ETV
vector 495  Network.dyn_peer[3]  lookupStabilitySig:vector  ETV
vector 496  Network.dyn_peer[3]  lookupTimeSig:vector  ETV
vector 497  Network.dyn_peer[4]  lookupHopsSig:vector  ETV
vector 498  Network.dyn_peer[4]  lookupStabilitySig:vector  ETV
vector 499  Network.dyn_peer[4]  lookupTimeSig:vector  ETV
vector 500  Network.dyn_peer[5]  lookupHopsSig:vector  ETV
vector 501  Network.dyn_peer[5]  lookupStabilitySig:vector  ETV
vector 502  Network.dyn_peer[5]  lookupTimeSig:vector  ETV
vector 503  Network.dyn_peer[6]  lookupHopsSig:vector  ETV
vector 504  Network.dyn_peer[6]  lookupStabilitySig:vector  ETV
vector 505  Network.dyn_peer[6]  lookupTimeSig:vector  ETV
vector 506  Network.dyn_peer[7]  lookupHopsSig:vector  ETV
vector 507  Network.dyn_peer[7]  lookupStabilitySig:vector  ETV
vector 508  Network.dyn_peer[7]  lookupTimeSig:vector  ETV
vector 509  Network.dyn_peer[8]  lookupHopsSig:vector  ETV
vector 510  Network.dyn_peer[8]  lookupStabilitySig:vector  ETV
vector 511  Network.dyn_peer[8]  lookupTimeSig:vector  ETV
vector 512  Network.dyn_peer[9]  lookupHopsSig:vector  ETV
vector 513  Network.dyn_peer[9]  lookupStabilitySig:vector  ETV
vector 514  Network.dyn_peer[9]  lookupTimeSig:vector  ETV
vector 515  Network.dyn_peer[10]  lookupHopsSig:vector  ETV
vector 516  Network.dyn_peer[10]  lookupStabilitySig:vector  ETV
vector 517  Network.dyn_peer[10]  lookupTimeSig:vector  ETV
vector 518  Network.dyn_peer[11]  lookupHopsSig:vector  ETV
vector 519  Network.dyn_peer[11]  lookupStabilitySig:vector  ETV
vector 520  Network.dyn_peer[11]  lookupTimeSig:vector  ETV
vector 521  Network.dyn_peer[12]  lookupHopsSig:vector  ETV
vector 522  Network.dyn_peer[12]  lookupStabilitySig:vector  ETV
vector 523  Network.dyn_peer[12]  lookupTimeSig:vector  ETV
vector 524  Network.dyn_peer[13]  lookupHopsSig:vector  ETV
vector 525  Network.dyn_peer[13]  lookupStabilitySig:vector  ETV
vector 526  Network.dyn_peer[13]  lookupTimeSig:vector  ETV
vector 527  Network.dyn_peer[14]  lookupHopsSig:vector  ETV
vector 528  Network.dyn_peer[14]  lookupStabilitySig:vector  ETV
vector 529  Network.dyn_peer[14]  lookupTimeSig:vector  ETV
vector 530  Network.dyn_peer[15]  lookupHopsSig:vector  ETV
vector 531  Network.dyn_peer[15]  lookupStabilitySig:vector  ETV
vector 532  Network.dyn_peer[15]  lookupTimeSig:vector  ETV
vector 533  Network.dyn_peer[16]  lookupHopsSig:vector  ETV
vector 534  Network.dyn_peer[16]  lookupStabilitySig:vector  ETV
vector 535  Network.dyn_peer[16]  lookupTimeSig:vector  ETV
vector 536  Network.dyn_peer[17]  lookupHopsSig:vector  ETV
vector 537  Network.dyn_peer[17]  lookupStabilitySig:vector  ETV
vector 538  Network.dyn_peer[17]  lookupTimeSig:vector  ETV
vector 539  Network.dyn_peer[18]  lookupHopsSig:vector  ETV
vector 540  Network.dyn_peer[18]  lookupStabilitySig:vector  ETV
vector 541  Network.dyn_peer[18]  lookupTimeSig:vector  ETV
vector 542  Network.dyn_peer[19]  lookupHopsSig:vector  ETV
vector 543  Network.dyn_peer[19]  lookupStabilitySig:vector  ETV
vector 544  Network.dyn_peer[19]  lookupTimeSig:vector  ETV
vector 545  Network.dyn_peer[20]  lookupHopsSig:vector  ETV
vector 546  Network.dyn_peer[20]  lookupStabilitySig:vector  ETV
vector 547  Network.dyn_peer[20]  lookupTimeSig:vector  ETV
vector 548  Network.dyn_peer[21]  lookupHopsSig:vector  ETV
vector 549  Network.dyn_peer[21]  lookupStabilitySig:vector  ETV
vector 550  Network.dyn_peer[21]  lookupTimeSig:vector  ETV
vector 551  Network.dyn_peer[22]  lookupHopsSig:vector  ETV
vector 552  Network.dyn_peer[22]  lookupStabilitySig:vector  ETV
vector 553  Network.dyn_peer[22]  lookupTimeSig:vector  ETV
vector 554  Network.dyn_peer[23]  lookupHopsSig:vector  ETV
vector 555  Network.dyn_peer[23]  lookupStabilitySig:vector  ETV
vector 556  Network.dyn_peer[23]  lookupTimeSig:vector  ETV
vector 557  Network.dyn_peer[24]  lookupHopsSig:vector  ETV
vector 558  Network.dyn_peer[24]  lookupStabilitySig:vector  ETV
vector 559  Network.dyn_peer[24]  lookupTimeSig:vector  ETV
vector 560  Network.dyn_peer[25]  lookupHopsSig:vector  ETV
vector 561  Network.dyn_peer[25]  lookupStabilitySig:vector  ETV
vector 562  Network.dyn_peer[25]  lookupTimeSig:vector  ETV
vector 563  Network.dyn_peer[26]  lookupHopsSig:vector  ETV
vector 564  Network.dyn_peer[26]  lookupStabilitySig:vector  ETV
vector 565  Network.dyn_peer[26]  lookupTimeSig:vector  ETV
vector 566  Network.dyn_peer[27]  lookupHopsSig:vector  ETV
vector 567  Network.dyn_peer[27]  lookupStabilitySig:vector  ETV
vector 568  Network.dyn_peer[27]  lookupTimeSig:vector  ETV
vector 569  Network.dyn_peer[28]  lookupHopsSig:vector  ETV
vector 570  Network.dyn_peer[28]  lookupStabilitySig:vector  ETV
vector 571  Network.dyn_peer[28]  lookupTimeSig:vector  ETV
vector 572  Network.dyn_peer[29]  lookupHopsSig:vector  ETV
vector 573  Network.dyn_peer[29]  lookupStabilitySig:vector  ETV
vector 574  Network.dyn_peer[29]  lookupTimeSig:vector  ETV
vector 575  Network.dyn_peer[30]  lookupHopsSig:vector  ETV
vector 576  Network.dyn_peer[30]  lookupStabilitySig:vector  ETV
vector 577  Network.dyn_peer[30]  lookupTimeSig:vector  ETV
vector 578  Network.dyn_peer[31]  lookupHopsSig:vector  ETV
vector 579  Network.dyn_peer[31]  lookupStabilitySig:vector  ETV
vector 580  Network.dyn_peer[31]  lookupTimeSig:vector  ETV
485	29	1020	0
485	33	1020.3	2
485	38	1020.515252676489	1
485	44	1020.727644577143	1
485	1057	33020.1	1
485	1061	33020.302421076719	1
485	1065	33020.509436678981	1
485	1069	33020.710287383635	1
485	2103	65020.1	1
485	2106	65020.3	1
485	2113	65020.527554904444	1
485	2118	65020.728523974341	1
485	3155	97020.2	2
485	3159	97020.5	2
485	3164	97020.803406637166	2
485	3168	97021.009741062209	1
485	4226	129020	0
485	4230	129020.3	2
485	4235	129020.509591833862	1
485	4241	129020.821240310265	2
485	5236	161020.1	1
485	5241	161020.406350958743	2
485	5247	161020.614787656862	1
485	5260	161020.871210656487	1
485	6301	193020	0
485	6305	193020.203494068137	1
485	6309	193020.404367071704	1
485	6315	193020.71271571352	2
485	7363	225020.2	2
485	7367	225020.5	2
485	7372	225020.707377042178	1
485	7379	225021.02460040562	2
485	8406	257020.2	2
485	8410	257020.5	2
485	8416	257020.708225575078	1
485	8425	257020.934480343516	1
485	9431	289020.1	1
485	9435	289020.4	2
485	9439	289020.608665985274	1
485	9447	289020.830243418477	1
485	10498	321020.2	2
485	10501	321020.4	1
485	10506	321020.609921629395	1
485	10511	321020.91861320478	2
485	11531	353020.1	1
485	11535	353020.300989463729	1
485	11539	353020.505169717114	1
485	11545	353020.71947812006	1
485	12561	385020.2	2
485	12564	385020.4	1
485	12568	385020.603810787964	1
485	12576	385020.828937158311	1
485	13586	417020.1	1
485	13590	417020.302196714265	1
485	13595	417020.609555385291	2
485	13611	417020.940440261556	2
485	14622	449020	0
485	14626	449020.3	2
485	14631	449020.605413160992	2
485	14636	449020.913363702499	2
485	15652	481020.1	1
485	15655	481020.3	1
485	15659	481020.507938233874	1
485	15664	481020.721126126752	1
485	16684	513020.1	1
485	16688	513020.301893367676	1
485	16692	513020.505405655342	1
485	16699	513020.719268238102	1
485	17733	545020.1	1
485	17737	545020.4	2
485	17741	545020.602532144361	1
485	17747	545020.909897805852	2
485	18782	577020.2	2
485	18785	577020.4	1
485	18790	577020.706149720698	2
485	18798	577020.935681245898	1
485	19793	609020	0
485	19797	609020.3	2
485	19801	609020.507318654356	1
485	19805	609020.714232213264	1
485	20820	641020.2	2
485	20824	641020.404015677729	1
485	20829	641020.610613185522	1
485	20834	641020.916323885962	2
485	21876	673020.2	2
485	21880	673020.403311807045	1
485	21885	673020.613368473101	1
485	21891	673020.917382443341	2
485	22921	705020.2	2
485	22925	705020.5	2
485	22931	705020.814228881738	2
485	22938	705021.126932811621	2
485	23961	737020	0
485	23965	737020.3	2
485	23969	737020.508918535872	1
485	23978	737020.742932130181	1
485	25019	769020.2	2
485	25022	769020.4	1
485	25027	769020.707875997063	2
485	25034	769020.925767440294	1
485	26059	801020.2	2
485	26063	801020.5	2
485	26068	801020.805418017641	2
485	26075	801021.022877453188	1
485	27110	833020.1	1
485	27113	833020.3	1
485	27118	833020.512049883857	1
485	27123	833020.722008912803	1
485	28147	865020.2	2
485	28152	865020.6	3
485	28156	865020.808043894993	1
485	28162	865021.120937766669	2
485	29186	897020.2	2
485	29191	897020.506315747587	2
485	29196	897020.712836683184	1
485	29200	897020.918263050586	1
485	30252	929020.1	1
485	30257	929020.405610982771	2
485	30261	929020.613381741808	1
485	30268	929020.925740060281	2
485	31330	961020.2	2
485	31334	961020.5	2
485	31339	961020.802604813091	2
485	31352	961021.040288217553	1
485	32398	993020.1	1
485	32401	993020.3	1
485	32405	993020.507550974308	1
485	32411	993020.810546652496	2
485	33407	1025020.2	2
485	33410	1025020.4	1
485	33414	1025020.608805141656	1
485	33419	1025020.814513227505	1
485	34440	1057020.2	2
485	34443	1057020.4	1
485	34447	1057020.600578870507	1
485	34451	1057020.80453948981	1
485	35505	1089020	0
485	35508	1089020.2	1
485	35513	1089020.503777147694	2
485	35518	1089020.809471484086	2
485	36546	1121020.2	2
485	36549	1121020.4	1
485	36554	1121020.702850396432	2
485	36560	1121020.917885509634	1
485	37567	1153020.2	2
485	37571	1153020.5	2
485	37581	1153020.838344520408	2
485	37587	1153021.060817189871	1
485	38608	1185020	0
485	38611	1185020.2	1
485	38616	1185020.501212851877	2
485	38621	1185020.709643387802	1
485	39651	1217020.1	1
485	39654	1217020.3	1
485	39660	1217020.606335968935	2
485	39665	1217020.913008014896	2
485	40662	1249020.2	2
485	40666	1249020.5	2
485	40670	1249020.709332157811	1
485	40674	1249020.918677356415	1
485	41734	1281020.2	2
485	41737	1281020.4	1
485	41742	1281020.704476389447	2
485	41746	1281020.911910178137	1
485	42774	1313020.1	1
485	42778	1313020.4	2
485	42782	1313020.604746618934	1
485	42786	1313020.812899899796	1
485	43809	1345020.2	2
485	43813	1345020.5	2
485	43818	1345020.803791563508	2
485	43822	1345021.006889303039	1
485	44819	1377020.2	2
485	44822	1377020.4	1
485	44826	1377020.60944981351	1
485	44831	1377020.821697482565	1
485	45847	1409020.1	1
485	45853	1409020.410698257679	2
485	45857	1409020.613546709212	1
485	45864	1409020.840569653605	1
485	46877	1441020	0
485	46881	1441020.20712245847	1
485	46885	1441020.411437755135	1
485	46894	1441020.732988216053	2
485	47898	1473020.2	2
485	47903	1473020.411119458951	1
485	47908	1473020.619836335371	1
485	47914	1473020.832717725286	1
485	48935	1505020.1	1
485	48939	1505020.300198720858	1
485	48946	1505020.52215239738	1
485	48950	1505020.72396733139	1
485	50020	1537020.1	1
485	50025	1537020.404984560662	2
485	50029	1537020.608337998534	1
485	50041	1537020.951945584898	2
485	51070	1569020.2	2
485	51074	1569020.5	2
485	51079	1569020.71145586575	1
485	51086	1569021.024018491525	2
485	52113	1601020.1	1
485	52117	1601020.4	2
485	52122	1601020.609465195486	1
485	52130	1601020.837625080409	1
485	53157	1633020.1	1
485	53161	1633020.4	2
485	53165	1633020.606290149714	1
485	53172	1633020.924306524398	2
485	54207	1665020.1	1
485	54211	1665020.304237732235	1
485	54216	1665020.610085354875	2
485	54222	1665020.82169137551	1
485	55244	1697020.1	1
485	55248	1697020.4	2
485	55255	1697020.625122522903	1
485	55260	1697020.933960134713	2
485	56269	1729020.1	1
485	56273	1729020.301020671515	1
485	56278	1729020.602133664718	2
485	56282	1729020.806694415173	1
485	57289	1761020	0
485	57292	1761020.2	1
485	57296	1761020.409001281287	1
485	57308	1761020.659100000695	1
485	58323	1793020.1	1
485	58328	1793020.305862262639	1
485	58332	1793020.514220477143	1
485	58337	1793020.719028544276	1
485	59372	1825020.1	1
485	59375	1825020.3	1
485	59379	1825020.509115790061	1
485	59385	1825020.716283464577	1
485	60382	1857020.1	1
485	60386	1857020.4	2
485	60391	1857020.708451768972	2
485	60395	1857020.916997424764	1
485	61425	1889020.2	2
485	61429	1889020.40305736395	1
485	61434	1889020.609939526472	1
485	61438	1889020.81317046061	1
485	62448	1921020	0
485	62451	1921020.2	1
485	62456	1921020.506391336643	2
485	62466	1921020.750882102939	1
485	63529	1953020.2	2
485	63532	1953020.4	1
485	63537	1953020.613909587489	1
485	63541	1953020.823094828304	1
485	64589	1985020	0
485	64592	1985020.2	1
485	64596	1985020.40135129149	1
485	64601	1985020.610541577009	1
485	65631	2017020.1	1
485	65634	2017020.3	1
485	65646	2017020.529764007873	1
485	65653	2017020.761400238663	1
486	29	1020	1
486	33	1020.3	0.75
486	38	1020.515252676489	0.875
486	44	1020.727644577143	0.875
486	1057	33020.1	0.875
486	1061	33020.302421076719	0.875
486	1065	33020.509436678981	0.875
486	1069	33020.710287383635	0.875
486	2103	65020.1	0.875
486	2106	65020.3	0.875
486	2113	65020.527554904444	0.875
486	2118	65020.728523974341	0.875
486	3155	97020.2	0.75
486	3159	97020.5	0.75
486	3164	97020.803406637166	0.75
486	3168	97021.009741062209	0.875
486	4226	129020	1
486	4230	129020.3	0.75
486	4235	129020.509591833862	0.875
486	4241	129020.821240310265	0.75
486	5236	161020.1	0.875
486	5241	161020.406350958743	0.75
486	5247	161020.614787656862	0.875
486	5260	161020.871210656487	0.875
486	6301	193020	1
486	6305	193020.203494068137	0.875
486	6309	193020.404367071704	0.875
486	6315	193020.71271571352	0.75
486	7363	225020.2	0.75
486	7367	225020.5	0.75
486	7372	225020.707377042178	0.875
486	7379	225021.02460040562	0.75
486	8406	257020.2	0.75
486	8410	257020.5	0.75
486	8416	257020.708225575078	0.875
486	8425	257020.934480343516	0.875
486	9431	289020.1	0.875
486	9435	289020.4	0.75
486	9439	289020.608665985274	0.875
486	9447	289020.830243418477	0.875
486	10498	321020.2	0.75
486	10501	321020.4	0.875
486	10506	321020.609921629395	0.875
486	10511	321020.91861320478	0.75
486	11531	353020.1	0.875
486	11535	353020.300989463729	0.875
486	11539	353020.505169717114	0.875
486	11545	353020.71947812006	0.875
486	12561	385020.2	0.75
486	12564	385020.4	0.875
486	12568	385020.603810787964	0.875
486	12576	385020.828937158311	0.875
486	13586	417020.1	0.875
486	13590	417020.302196714265	0.875
486	13595	417020.609555385291	0.75
486	13611	417020.940440261556	0.75
486	14622	449020	1
486	14626	449020.3	0.75
486	14631	449020.605413160992	0.75
486	14636	449020.913363702499	0.75
486	15652	481020.1	0.875
486	15655	481020.3	0.875
486	15659	481020.507938233874	0.875
486	15664	481020.721126126752	0.875
486	16684	513020.1	0.875
486	16688	513020.301893367676	0.875
486	16692	513020.505405655342	0.875
486	16699	513020.719268238102	0.875
486	17733	545020.1	0.875
486	17737	545020.4	0.75
486	17741	545020.602532144361	0.875
486	17747	545020.909897805852	0.75
486	18782	577020.2	0.75
486	18785	577020.4	0.875
486	18790	577020.706149720698	0.75
486	18798	577020.935681245898	0.875
486	19793	609020	1
486	19797	609020.3	0.75
486	19801	609020.507318654356	0.875
486	19805	609020.714232213264	0.875
486	20820	641020.2	0.75
486	20824	641020.404015677729	0.875
486	20829	641020.610613185522	0.875
486	20834	641020.916323885962	0.75
486	21876	673020.2	0.75
486	21880	673020.403311807045	0.875
486	21885	673020.613368473101	0.875
486	21891	673020.917382443341	0.75
486	22921	705020.2	0.75
486	22925	705020.5	0.75
486	22931	705020.814228881738	0.75
486	22938	705021.126932811621	0.75
486	23961	737020	1
486	23965	737020.3	0.75
486	23969	737020.508918535872	0.875
486	23978	737020.742932130181	0.875
486	25019	769020.2	0.75
486	25022	769020.4	0.875
486	25027	769020.707875997063	0.75
486	25034	769020.925767440294	0.875
486	26059	801020.2	0.75
486	26063	801020.5	0.75
486	26068	801020.805418017641	0.75
486	26075	801021.022877453188	0.875
486	27110	833020.1	0.875
486	27113	833020.3	0.875
486	27118	833020.512049883857	0.875
486	27123	833020.722008912803	0.875
486	28147	865020.2	0.75
486	28152	865020.6	0.625
486	28156	865020.808043894993	0.875
486	28162	865021.120937766669	0.75
486	29186	897020.2	0.75
486	29191	897020.506315747587	0.75
486	29196	897020.712836683184	0.875
486	29200	897020.918263050586	0.875
486	30252	929020.1	0.875
486	30257	929020.405610982771	0.75
486	30261	929020.613381741808	0.875
486	30268	929020.925740060281	0.75
486	31330	961020.2	0.75
486	31334	961020.5	0.75
486	31339	961020.802604813091	0.75
486	31352	961021.040288217553	0.875
486	32398	993020.1	0.875
486	32401	993020.3	0.875
486	32405	993020.507550974308	0.875
486	32411	993020.810546652496	0.75
486	33407	1025020.2	0.75
486	33410	1025020.4	0.875
486	33414	1025020.608805141656	0.875
486	33419	1025020.814513227505	0.875
486	34440	1057020.2	0.75
486	34443	1057020.4	0.875
486	34447	1057020.600578870507	0.875
486	34451	1057020.80453948981	0.875
486	35505	1089020	1
486	35508	1089020.2	0.875
486	35513	1089020.503777147694	0.75
486	35518	1089020.809471484086	0.75
486	36546	1121020.2	0.75
486	36549	1121020.4	0.875
486	36554	1121020.702850396432	0.75
486	36560	1121020.917885509634	0.875
486	37567	1153020.2	0.75
486	37571	1153020.5	0.75
486	37581	1153020.838344520408	0.75
486	37587	1153021.060817189871	0.875
486	38608	1185020	1
486	38611	1185020.2	0.875
486	38616	1185020.501212851877	0.75
486	38621	1185020.709643387802	0.875
486	39651	1217020.1	0.875
486	39654	1217020.3	0.875
486	39660	1217020.606335968935	0.75
486	39665	1217020.913008014896	0.75
486	40662	1249020.2	0.75
486	40666	1249020.5	0.75
486	40670	1249020.709332157811	0.875
486	40674	1249020.918677356415	0.875
486	41734	1281020.2	0.75
486	41737	1281020.4	0.875
486	41742	1281020.704476389447	0.75
486	41746	1281020.911910178137	0.875
486	42774	1313020.1	0.875
486	42778	1313020.4	0.75
486	42782	1313020.604746618934	0.875
486	42786	1313020.812899899796	0.875
486	43809	1345020.2	0.75
486	43813	1345020.5	0.75
486	43818	1345020.803791563508	0.75
486	43822	1345021.006889303039	0.875
486	44819	1377020.2	0.75
486	44822	1377020.4	0.875
486	44826	1377020.60944981351	0.875
486	44831	1377020.821697482565	0.875
486	45847	1409020.1	0.875
486	45853	1409020.410698257679	0.75
486	45857	1409020.613546709212	0.875
486	45864	1409020.840569653605	0.875
486	46877	1441020	1
486	46881	1441020.20712245847	0.875
486	46885	1441020.411437755135	0.875
486	46894	1441020.732988216053	0.75
486	47898	1473020.2	0.75
486	47903	1473020.411119458951	0.875
486	47908	1473020.619836335371	0.875
486	47914	1473020.832717725286	0.875
486	48935	1505020.1	0.875
486	48939	1505020.300198720858	0.875
486	48946	1505020.52215239738	0.875
486	48950	1505020.72396733139	0.875
486	50020	1537020.1	0.875
486	50025	1537020.404984560662	0.75
486	50029	1537020.608337998534	0.875
486	50041	1537020.951945584898	0.75
486	51070	1569020.2	0.75
486	51074	1569020.5	0.75
486	51079	1569020.71145586575	0.875
486	51086	1569021.024018491525	0.75
486	52113	1601020.1	0.875
486	52117	1601020.4	0.75
486	52122	1601020.609465195486	0.875
486	52130	1601020.837625080409	0.875
486	53157	1633020.1	0.875
486	53161	1633020.4	0.75
486	53165	1633020.606290149714	0.875
486	53172	1633020.924306524398	0.75
486	54207	1665020.1	0.875
486	54211	1665020.304237732235	0.875
486	54216	1665020.610085354875	0.75
486	54222	1665020.82169137551	0.875
486	55244	1697020.1	0.875
486	55248	1697020.4	0.75
486	55255	1697020.625122522903	0.875
486	55260	1697020.933960134713	0.75
486	56269	1729020.1	0.875
486	56273	1729020.301020671515	0.875
486	56278	1729020.602133664718	0.75
486	56282	1729020.806694415173	0.875
486	57289	1761020	1
486	57292	1761020.2	0.875
486	57296	1761020.409001281287	0.875
486	57308	1761020.659100000695	0.875
486	58323	1793020.1	0.875
486	58328	1793020.305862262639	0.875
486	58332	1793020.514220477143	0.875
486	58337	1793020.719028544276	0.875
486	59372	1825020.1	0.875
486	59375	1825020.3	0.875
486	59379	1825020.509115790061	0.875
486	59385	1825020.716283464577	0.875
486	60382	1857020.1	0.875
486	60386	1857020.4	0.75
486	60391	1857020.708451768972	0.75
486	60395	1857020.916997424764	0.875
486	61425	1889020.2	0.75
486	61429	1889020.40305736395	0.875
486	61434	1889020.609939526472	0.875
486	61438	1889020.81317046061	0.875
486	62448	1921020	1
486	62451	1921020.2	0.875
486	62456	1921020.506391336643	0.75
486	62466	1921020.750882102939	0.875
486	63529	1953020.2	0.75
486	63532	1953020.4	0.875
486	63537	1953020.613909587489	0.875
486	63541	1953020.823094828304	0.875
486	64589	1985020	1
486	64592	1985020.2	0.875
486	64596	1985020.40135129149	0.875
486	64601	1985020.610541577009	0.875
486	65631	2017020.1	0.875
486	65634	2017020.3	0.875
486	65646	2017020.529764007873	0.875
486	65653	2017020.761400238663	0.875
487	29	1020	0
487	33	1020.3	0.3
487	38	1020.515252676489	0.2
487	44	1020.727644577143	0.2
487	1057	33020.1	0.1
487	1061	33020.302421076719	0.2
487	1065	33020.509436678981	0.2
487	1069	33020.710287383635	0.2
487	2103	65020.1	0.1
487	2106	65020.3	0.2
487	2113	65020.527554904444	0.2
487	2118	65020.728523974341	0.2
487	3155	97020.2	0.2
487	3159	97020.5	0.3
487	3164	97020.803406637166	0.3
487	3168	97021.009741062209	0.2
487	4226	129020	0
487	4230	129020.3	0.3
487	4235	129020.509591833862	0.2
487	4241	129020.821240310265	0.3
487	5236	161020.1	0.1
487	5241	161020.406350958743	0.3
487	5247	161020.614787656862	0.2
487	5260	161020.871210656487	0.2
487	6301	193020	0
487	6305	193020.203494068137	0.2
487	6309	193020.404367071704	0.2
487	6315	193020.71271571352	0.3
487	7363	225020.2	0.2
487	7367	225020.5	0.3
487	7372	225020.707377042178	0.2
487	7379	225021.02460040562	0.3
487	8406	257020.2	0.2
487	8410	257020.5	0.3
487	8416	257020.708225575078	0.2
487	8425	257020.934480343516	0.2
487	9431	289020.1	0.1
487	9435	289020.4	0.3
487	9439	289020.608665985274	0.2
487	9447	289020.830243418477	0.2
487	10498	321020.2	0.2
487	10501	321020.4	0.2
487	10506	321020.609921629395	0.2
487	10511	321020.91861320478	0.3
487	11531	353020.1	0.1
487	11535	353020.300989463729	0.2
487	11539	353020.505169717114	0.2
487	11545	353020.71947812006	0.2
487	12561	385020.2	0.2
487	12564	385020.4	0.2
487	12568	385020.603810787964	0.2
487	12576	385020.828937158311	0.2
487	13586	417020.1	0.1
487	13590	417020.302196714265	0.2
487	13595	417020.609555385291	0.3
487	13611	417020.940440261556	0.3
487	14622	449020	0
487	14626	449020.3	0.3
487	14631	449020.605413160992	0.3
487	14636	449020.913363702499	0.3
487	15652	481020.1	0.1
487	15655	481020.3	0.2
487	15659	481020.507938233874	0.2
487	15664	481020.721126126752	0.2
487	16684	513020.1	0.1
487	16688	513020.301893367676	0.2
487	16692	513020.505405655342	0.2
487	16699	513020.719268238102	0.2
487	17733	545020.1	0.1
487	17737	545020.4	0.3
487	17741	545020.602532144361	0.2
487	17747	545020.909897805852	0.3
487	18782	577020.2	0.2
487	18785	577020.4	0.2
487	18790	577020.706149720698	0.3
487	18798	577020.935681245898	0.2
487	19793	609020	0
487	19797	609020.3	0.3
487	19801	609020.507318654356	0.2
487	19805	609020.714232213264	0.2
487	20820	641020.2	0.2
487	20824	641020.404015677729	0.2
487	20829	641020.610613185522	0.2
487	20834	641020.916323885962	0.3
487	21876	673020.2	0.2
487	21880	673020.403311807045	0.2
487	21885	673020.613368473101	0.2
487	21891	673020.917382443341	0.3
487	22921	705020.2	0.2
487	22925	705020.5	0.3
487	22931	705020.814228881738	0.3
487	22938	705021.126932811621	0.3
487	23961	737020	0
487	23965	737020.3	0.3
487	23969	737020.508918535872	0.2
487	23978	737020.742932130181	0.2
487	25019	769020.2	0.2
487	25022	769020.4	0.2
487	25027	769020.707875997063	0.3
487	25034	769020.925767440294	0.2
487	26059	801020.2	0.2
487	26063	801020.5	0.3
487	26068	801020.805418017641	0.3
487	26075	801021.022877453188	0.2
487	27110	833020.1	0.1
487	27113	833020.3	0.2
487	27118	833020.512049883857	0.2
487	27123	833020.722008912803	0.2
487	28147	865020.2	0.2
487	28152	865020.6	0.4
487	28156	865020.808043894993	0.2
487	28162	865021.120937766669	0.3
487	29186	897020.2	0.2
487	29191	897020.506315747587	0.3
487	29196	897020.712836683184	0.2
487	29200	897020.918263050586	0.2
487	30252	929020.1	0.1
487	30257	929020.405610982771	0.3
487	30261	929020.613381741808	0.2
487	30268	929020.925740060281	0.3
487	31330	961020.2	0.2
487	31334	961020.5	0.3
487	31339	961020.802604813091	0.3
487	31352	961021.040288217553	0.2
487	32398	993020.1	0.1
487	32401	993020.3	0.2
487	32405	993020.507550974308	0.2
487	32411	993020.810546652496	0.3
487	33407	1025020.2	0.2
487	33410	1025020.4	0.2
487	33414	1025020.608805141656	0.2
487	33419	1025020.814513227505	0.2
487	34440	1057020.2	0.2
487	34443	1057020.4	0.2
487	34447	1057020.600578870507	0.2
487	34451	1057020.80453948981	0.2
487	35505	1089020	0
487	35508	1089020.2	0.2
487	35513	1089020.503777147694	0.3
487	35518	1089020.809471484086	0.3
487	36546	1121020.2	0.2
487	36549	1121020.4	0.2
487	36554	1121020.702850396432	0.3
487	36560	1121020.917885509634	0.2
487	37567	1153020.2	0.2
487	37571	1153020.5	0.3
487	37581	1153020.838344520408	0.3
487	37587	1153021.060817189871	0.2
487	38608	1185020	0
487	38611	1185020.2	0.2
487	38616	1185020.501212851877	0.3
487	38621	1185020.709643387802	0.2
487	39651	1217020.1	0.1
487	39654	1217020.3	0.2
487	39660	1217020.606335968935	0.3
487	39665	1217020.913008014896	0.3
487	40662	1249020.2	0.2
487	40666	1249020.5	0.3
487	40670	1249020.709332157811	0.2
487	40674	1249020.918677356415	0.2
487	41734	1281020.2	0.2
487	41737	1281020.4	0.2
487	41742	1281020.704476389447	0.3
487	41746	1281020.911910178137	0.2
487	42774	1313020.1	0.1
487	42778	1313020.4	0.3
487	42782	1313020.604746618934	0.2
487	42786	1313020.812899899796	0.2
487	43809	1345020.2	0.2
487	43813	1345020.5	0.3
487	43818	1345020.803791563508	0.3
487	43822	1345021.006889303039	0.2
487	44819	1377020.2	0.2
487	44822	1377020.4	0.2
487	44826	1377020.60944981351	0.2
487	44831	1377020.821697482565	0.2
487	45847	1409020.1	0.1
487	45853	1409020.410698257679	0.3
487	45857	1409020.613546709212	0.2
487	45864	1409020.840569653605	0.2
487	46877	1441020	0
487	46881	1441020.20712245847	0.2
487	46885	1441020.411437755135	0.2
487	46894	1441020.732988216053	0.3
487	47898	1473020.2	0.2
487	47903	1473020.411119458951	0.2
487	47908	1473020.619836335371	0.2
487	47914	1473020.832717725286	0.2
487	48935	1505020.1	0.1
487	48939	1505020.300198720858	0.2
487	48946	1505020.52215239738	0.2
487	48950	1505020.72396733139	0.2
487	50020	1537020.1	0.1
487	50025	1537020.404984560662	0.3
487	50029	1537020.608337998534	0.2
487	50041	1537020.951945584898	0.3
487	51070	1569020.2	0.2
487	51074	1569020.5	0.3
487	51079	1569020.71145586575	0.2
487	51086	1569021.024018491525	0.3
487	52113	1601020.1	0.1
487	52117	1601020.4	0.3
487	52122	1601020.609465195486	0.2
487	52130	1601020.837625080409	0.2
487	53157	1633020.1	0.1
487	53161	1633020.4	0.3
487	53165	1633020.606290149714	0.2
487	53172	1633020.924306524398	0.3
487	54207	1665020.1	0.1
487	54211	1665020.304237732235	0.2
487	54216	1665020.610085354875	0.3
487	54222	1665020.82169137551	0.2
487	55244	1697020.1	0.1
487	55248	1697020.4	0.3
487	55255	1697020.625122522903	0.2
487	55260	1697020.933960134713	0.3
487	56269	1729020.1	0.1
487	56273	1729020.301020671515	0.2
487	56278	1729020.602133664718	0.3
487	56282	1729020.806694415173	0.2
487	57289	1761020	0
487	57292	1761020.2	0.2
487	57296	1761020.409001281287	0.2
487	57308	1761020.659100000695	0.2
487	58323	1793020.1	0.1
487	58328	1793020.305862262639	0.2
487	58332	1793020.514220477143	0.2
487	58337	1793020.719028544276	0.2
487	59372	1825020.1	0.1
487	59375	1825020.3	0.2
487	59379	1825020.509115790061	0.2
487	59385	1825020.716283464577	0.2
487	60382	1857020.1	0.1
487	60386	1857020.4	0.3
487	60391	1857020.708451768972	0.3
487	60395	1857020.916997424764	0.2
487	61425	1889020.2	0.2
487	61429	1889020.40305736395	0.2
487	61434	1889020.609939526472	0.2
487	61438	1889020.81317046061	0.2
487	62448	1921020	0
487	62451	1921020.2	0.2
487	62456	1921020.506391336643	0.3
487	62466	1921020.750882102939	0.2
487	63529	1953020.2	0.2
487	63532	1953020.4	0.2
487	63537	1953020.613909587489	0.2
487	63541	1953020.823094828304	0.2
487	64589	1985020	0
487	64592	1985020.2	0.2
487	64596	1985020.40135129149	0.2
487	64601	1985020.610541577009	0.2
487	65631	2017020.1	0.1
487	65634	2017020.3	0.2
487	65646	2017020.529764007873	0.2
487	65653	2017020.761400238663	0.2
488	62	2020.2	2
488	65	2020.4	1
488	72	2020.713668728749	2
488	76	2020.920667164867	1
488	1086	34020.1	1
488	1089	34020.3	1
488	1094	34020.601019884927	2
488	1099	34020.806162101119	1
488	2136	66020.2	2
488	2141	66020.507075262225	2
488	2145	66020.711666341004	1
488	2152	66020.931356193264	1
488	3185	98020.1	1
488	3189	98020.4	2
488	3196	98020.720186290896	2
488	3203	98020.945619938955	1
488	4257	130020	0
488	4260	130020.2	1
488	4272	130020.55154737643	2
488	4278	130020.769706293579	1
488	5276	162020	0
488	5280	162020.209485777283	1
488	5285	162020.510190554579	2
488	5289	162020.712968232847	1
488	6331	194020	0
488	6335	194020.3	2
488	6340	194020.515137874255	1
488	6348	194020.741551899564	1
488	7397	226020.2	2
488	7400	226020.4	1
488	7412	226020.753654365372	2
488	7417	226020.957880337745	1
488	8442	258020.1	1
488	8446	258020.4	2
488	8450	258020.609702423249	1
488	8454	258020.816584837296	1
488	9465	290020.2	2
488	9471	290020.517862237465	2
488	9493	290020.799000827026	1
488	9498	290021.001064400237	1
488	10529	322020.2	2
488	10535	322020.505720292692	2
488	10539	322020.710907052561	1
488	10543	322020.913855893138	1
488	11562	354020.1	1
488	11565	354020.3	1
488	11570	354020.608144909837	2
488	11574	354020.816124612684	1