version 2
run Stability-108-20130526-18:54:22-1898
attr configname Stability
attr datetime 20130526-18:54:22
attr experiment Stability
attr inifile omnetpp.ini
attr iterationvars $0=1e-4
attr iterationvars2 "$0=1e-4, $repetition=8"
attr measurement $0=1e-4
attr network Network
attr processid 1898
attr repetition 8
attr replication #8
attr resultdir results
attr runnumber 108
attr seedset 108

vector 10572  Network.churner  inGoingSizeSig:vector  ETV
vector 10479  Network.dyn_peer[1]  lookupHopsSig:vector  ETV
vector 10480  Network.dyn_peer[1]  lookupStabilitySig:vector  ETV
vector 10481  Network.dyn_peer[1]  lookupTimeSig:vector  ETV
vector 10503  Network.dyn_peer[9]  lookupHopsSig:vector  ETV
vector 10504  Network.dyn_peer[9]  lookupStabilitySig:vector  ETV
vector 10505  Network.dyn_peer[9]  lookupTimeSig:vector  ETV
vector 10509  Network.dyn_peer[11]  lookupHopsSig:vector  ETV
vector 10510  Network.dyn_peer[11]  lookupStabilitySig:vector  ETV
vector 10511  Network.dyn_peer[11]  lookupTimeSig:vector  ETV
vector 10521  Network.dyn_peer[15]  lookupHopsSig:vector  ETV
vector 10522  Network.dyn_peer[15]  lookupStabilitySig:vector  ETV
vector 10523  Network.dyn_peer[15]  lookupTimeSig:vector  ETV
vector 10527  Network.dyn_peer[17]  lookupHopsSig:vector  ETV
vector 10528  Network.dyn_peer[17]  lookupStabilitySig:vector  ETV
vector 10529  Network.dyn_peer[17]  lookupTimeSig:vector  ETV
vector 10530  Network.dyn_peer[18]  lookupHopsSig:vector  ETV
vector 10531  Network.dyn_peer[18]  lookupStabilitySig:vector  ETV
vector 10532  Network.dyn_peer[18]  lookupTimeSig:vector  ETV
vector 10560  Network.dyn_peer[28]  lookupHopsSig:vector  ETV
vector 10561  Network.dyn_peer[28]  lookupStabilitySig:vector  ETV
vector 10562  Network.dyn_peer[28]  lookupTimeSig:vector  ETV
vector 10482  Network.dyn_peer[2]  lookupHopsSig:vector  ETV
vector 10483  Network.dyn_peer[2]  lookupStabilitySig:vector  ETV
vector 10484  Network.dyn_peer[2]  lookupTimeSig:vector  ETV
vector 10494  Network.dyn_peer[6]  lookupHopsSig:vector  ETV
vector 10495  Network.dyn_peer[6]  lookupStabilitySig:vector  ETV
vector 10496  Network.dyn_peer[6]  lookupTimeSig:vector  ETV
vector 10500  Network.dyn_peer[8]  lookupHopsSig:vector  ETV
vector 10501  Network.dyn_peer[8]  lookupStabilitySig:vector  ETV
vector 10502  Network.dyn_peer[8]  lookupTimeSig:vector  ETV
vector 10506  Network.dyn_peer[10]  lookupHopsSig:vector  ETV
vector 10507  Network.dyn_peer[10]  lookupStabilitySig:vector  ETV
vector 10508  Network.dyn_peer[10]  lookupTimeSig:vector  ETV
vector 10512  Network.dyn_peer[12]  lookupHopsSig:vector  ETV
vector 10513  Network.dyn_peer[12]  lookupStabilitySig:vector  ETV
vector 10514  Network.dyn_peer[12]  lookupTimeSig:vector  ETV
vector 10536  Network.dyn_peer[20]  lookupHopsSig:vector  ETV
vector 10537  Network.dyn_peer[20]  lookupStabilitySig:vector  ETV
vector 10538  Network.dyn_peer[20]  lookupTimeSig:vector  ETV
vector 10545  Network.dyn_peer[23]  lookupHopsSig:vector  ETV
vector 10546  Network.dyn_peer[23]  lookupStabilitySig:vector  ETV
vector 10547  Network.dyn_peer[23]  lookupTimeSig:vector  ETV
vector 10548  Network.dyn_peer[24]  lookupHopsSig:vector  ETV
vector 10549  Network.dyn_peer[24]  lookupStabilitySig:vector  ETV
vector 10550  Network.dyn_peer[24]  lookupTimeSig:vector  ETV
vector 10476  Network.dyn_peer[0]  lookupHopsSig:vector  ETV
vector 10477  Network.dyn_peer[0]  lookupStabilitySig:vector  ETV
vector 10478  Network.dyn_peer[0]  lookupTimeSig:vector  ETV
vector 10485  Network.dyn_peer[3]  lookupHopsSig:vector  ETV
vector 10486  Network.dyn_peer[3]  lookupStabilitySig:vector  ETV
vector 10487  Network.dyn_peer[3]  lookupTimeSig:vector  ETV
vector 10488  Network.dyn_peer[4]  lookupHopsSig:vector  ETV
vector 10489  Network.dyn_peer[4]  lookupStabilitySig:vector  ETV
vector 10490  Network.dyn_peer[4]  lookupTimeSig:vector  ETV
vector 10491  Network.dyn_peer[5]  lookupHopsSig:vector  ETV
vector 10492  Network.dyn_peer[5]  lookupStabilitySig:vector  ETV
vector 10493  Network.dyn_peer[5]  lookupTimeSig:vector  ETV
vector 10497  Network.dyn_peer[7]  lookupHopsSig:vector  ETV
vector 10498  Network.dyn_peer[7]  lookupStabilitySig:vector  ETV
vector 10499  Network.dyn_peer[7]  lookupTimeSig:vector  ETV
vector 10515  Network.dyn_peer[13]  lookupHopsSig:vector  ETV
vector 10516  Network.dyn_peer[13]  lookupStabilitySig:vector  ETV
vector 10517  Network.dyn_peer[13]  lookupTimeSig:vector  ETV
vector 10518  Network.dyn_peer[14]  lookupHopsSig:vector  ETV
vector 10519  Network.dyn_peer[14]  lookupStabilitySig:vector  ETV
vector 10520  Network.dyn_peer[14]  lookupTimeSig:vector  ETV
vector 10533  Network.dyn_peer[19]  lookupHopsSig:vector  ETV
vector 10534  Network.dyn_peer[19]  lookupStabilitySig:vector  ETV
vector 10535  Network.dyn_peer[19]  lookupTimeSig:vector  ETV
vector 10542  Network.dyn_peer[22]  lookupHopsSig:vector  ETV
vector 10543  Network.dyn_peer[22]  lookupStabilitySig:vector  ETV
vector 10544  Network.dyn_peer[22]  lookupTimeSig:vector  ETV
vector 10563  Network.dyn_peer[29]  lookupHopsSig:vector  ETV
vector 10564  Network.dyn_peer[29]  lookupStabilitySig:vector  ETV
vector 10565  Network.dyn_peer[29]  lookupTimeSig:vector  ETV
vector 10566  Network.dyn_peer[30]  lookupHopsSig:vector  ETV
vector 10567  Network.dyn_peer[30]  lookupStabilitySig:vector  ETV
vector 10568  Network.dyn_peer[30]  lookupTimeSig:vector  ETV
vector 10539  Network.dyn_peer[21]  lookupHopsSig:vector  ETV
vector 10540  Network.dyn_peer[21]  lookupStabilitySig:vector  ETV
vector 10541  Network.dyn_peer[21]  lookupTimeSig:vector  ETV
vector 10551  Network.dyn_peer[25]  lookupHopsSig:vector  ETV
vector 10552  Network.dyn_peer[25]  lookupStabilitySig:vector  ETV
vector 10553  Network.dyn_peer[25]  lookupTimeSig:vector  ETV
vector 10557  Network.dyn_peer[27]  lookupHopsSig:vector  ETV
vector 10558  Network.dyn_peer[27]  lookupStabilitySig:vector  ETV
vector 10559  Network.dyn_peer[27]  lookupTimeSig:vector  ETV
vector 10569  Network.dyn_peer[31]  lookupHopsSig:vector  ETV
vector 10570  Network.dyn_peer[31]  lookupStabilitySig:vector  ETV
vector 10571  Network.dyn_peer[31]  lookupTimeSig:vector  ETV
vector 10524  Network.dyn_peer[16]  lookupHopsSig:vector  ETV
vector 10525  Network.dyn_peer[16]  lookupStabilitySig:vector  ETV
vector 10526  Network.dyn_peer[16]  lookupTimeSig:vector  ETV
vector 10554  Network.dyn_peer[26]  lookupHopsSig:vector  ETV
vector 10555  Network.dyn_peer[26]  lookupStabilitySig:vector  ETV
vector 10556  Network.dyn_peer[26]  lookupTimeSig:vector  ETV
10476	222	20.2000001	2
10476	1340	21.5000001	13
10476	1786	21.80938168516	2
10476	2059	22.018250514979	1
10476	2546	22.42038185973	4
10476	3234	23.02038185973	5
10476	3519	23.22797289608	2
10476	4204	23.72797289608	4
10476	4331	23.829730264856	4
10476	4472	23.936341921605	1
10476	4782	24.144311024086	2
10476	5047	24.344311024086	1
10476	5243	24.547509889079	1
10476	6062	25.241150003675	2
10476	6387	25.54165330962	4
10476	7048	26.14165330962	5
10476	7206	26.250579558418	5
10476	7464	26.456017485761	1
10476	7729	26.642807122643	4
10476	7735	26.645038815525	4
10476	7788	26.664257965352	1
10476	8620	27.365151988708	7
10476	8814	27.565151988708	1
10476	9479	28.071677676576	4
10476	9484	28.078329951206	4
10476	9907	28.378091064434	2
10476	10848	29.081765024849	10
10476	11237	29.461413806862	2
10476	11291	29.485668487386	4
10476	11766	29.88775972254	4
10476	12161	30.188677455816	2
10476	12744	30.691007630345	4
10476	13026	30.898652933429	2
10476	13512	31.298652933429	3
10476	13759	31.500395857329	1
10476	14124	31.807650523518	2
10476	14363	32.010314762306	5
10476	14507	32.114293078926	1
10476	15204	32.814293078926	6
10476	15811	33.423202290843	5
10476	16530	34.027392258854	5
10476	16845	34.292614733641	4
10476	16902	34.332069132284	2
10476	17378	34.739596964285	4
10476	17592	34.939596964285	1
10476	18705	35.939587016181	2
10476	19023	36.239587016181	2
10476	19440	36.552268055286	2
10476	19661	36.76023445634	1
10476	20056	37.06033455634	3
10476	20408	37.36033455634	2
10476	20674	37.569555893894	1
10476	21579	38.278565522567	6
10476	21668	38.353502429602	5
10476	21929	38.559983303106	1
10476	22287	38.866170916928	3
10476	23003	39.470895334985	5
10476	23470	39.879851738235	3
10476	24146	40.379951838235	5
10476	24302	40.479951838235	1
10476	24569	40.680417467566	1
10476	25263	41.182902581922	5
10476	25532	41.384135230413	1
10476	26447	42.192662413894	7
10476	27361	42.996559662597	9
10476	27728	43.296559662597	2
10476	28537	44.017036848174	5
10476	28977	44.417036848174	3
10476	29291	44.630812953044	3
10476	29412	44.782467533343	2
10476	29581	44.923349597788	6
10476	29838	45.125537198688	2
10476	30809	45.925537198688	7
10476	30817	45.929203055926	5
10476	31193	46.229303155926	3
10476	31420	46.429303155926	1
10476	31814	46.738269946104	3
10476	32121	47.038269946104	2
10476	32362	47.23857241257	1
10476	33585	48.144440743688	10
10476	33853	48.344440743688	1
10476	34445	48.848213901177	5
10476	34774	49.150981420055	4
10476	34928	49.253403090219	4
10476	35270	49.55448461803	2
10476	35638	49.857066069673	6
10476	35640	49.857290439126	2
10476	36198	50.363531679972	5
10476	37755	51.563531679972	13
10476	38089	51.77368029848	1
10476	38228	51.867864654832	4
10476	38614	52.171867489681	2
10476	38905	52.379845351633	2
10476	39973	53.242653142528	3
10476	40214	53.479845351633	11
10476	40519	53.882577409004	3
10476	41551	54.782677509004	10
10476	41923	55.082677509004	2
10476	42694	55.684790005985	7
10476	43111	56.049130646568	1
10476	43683	56.554919816986	5
10476	44078	56.854919816986	3
10476	44539	57.25686140855	3
10476	45150	57.728182169388	4
10476	45172	57.758134142918	6
10476	45353	57.933799186073	1
10476	45515	58.064410902069	2
10476	45622	58.168735622304	1
10476	46103	58.677802282207	4
10476	47521	59.777902382207	12
10476	48158	60.277902382207	5
10476	48635	60.679506216966	4
10476	48853	60.889486862661	2
10476	49352	61.389486862661	4
10476	50649	62.499114525963	11
10476	50871	62.676896547466	2
10476	50996	62.783689031845	1
10476	51404	63.090067860687	5
10476	51626	63.290067860687	1
10476	52202	63.79718559121	4
10476	52732	64.298064500829	4
10476	53698	65.202150203049	8
10476	54083	65.608374177987	3
10476	54823	66.314534737291	6
10476	55966	67.244617469671	8
10476	56208	67.422286033912	11
10476	56871	68.050540377352	7
10476	57197	68.33207617727	9
10476	57431	68.555105829451	4
10476	57437	68.56463390638	11
10476	57448	68.571053192904	2
10476	58143	69.071153292904	6
10476	59115	69.871153292904	7
10476	60974	71.37745822765	17
10476	62083	72.277775240056	9
10476	62925	72.943270259785	3
10476	63531	73.443270259785	4
10476	64119	73.951016189301	4
10476	64532	74.27237841699	2
10476	64817	74.47247851699	3
10476	65708	75.17247851699	7
10476	66712	75.976236763597	5
10476	67967	77.061077168022	9
10476	67996	77.076236763597	11
10476	68163	77.278481505707	7
10476	68354	77.486696753683	2
10476	68705	77.886696753683	3
10476	69113	78.288804027852	3
10476	69133	78.305967165172	2
10476	69556	78.697401597429	3
10476	69581	78.71059766738	3
10476	70072	79.105323454787	3
10476	70093	79.119732011687	3
10476	70609	79.522643160837	4
10476	71630	80.370664118919	6
10476	71713	80.422643160837	9
10476	72181	80.829373281589	3
10476	73212	81.635452537901	8
10476	74194	82.535452537901	9
10476	74450	82.740035741933	2
10476	75018	83.241580379505	4
10476	75240	83.454385210905	1
10476	75457	83.654822016758	2
10476	76138	84.254822016758	5
10476	76692	84.767605839352	4
10476	77079	85.07052937526	2
10476	77474	85.38000223416	4
10476	78225	85.965806532031	3
10476	78232	85.98000223416	7
10476	78790	86.44229400693	7
10476	79282	86.845738175394	4
10476	80446	87.753796756016	8
10476	81137	88.353796756016	6
10476	82482	89.561793405429	12
10476	82693	89.763404710811	1
10476	82949	89.963828218994	2
10476	83548	90.563828218994	6
10476	83760	90.768708652325	1
10476	84272	91.176837251436	3
10476	85141	91.881393775748	7
10476	85794	92.481393775748	6
10476	86765	93.283031653539	1
10476	87124	93.59044209972	2
10476	87490	93.889764023582	13
10476	87831	94.193873872814	5
10476	87918	94.279299459682	5
10476	88092	94.395219601942	4
10476	88111	94.403108567592	0
10476	88788	94.903108567592	4
10476	89008	95.10964143867	1
10476	89118	95.184270997235	3
10476	89250	95.310076609822	2
10476	89563	95.519902228883	1
10476	89749	95.663730271498	1
10476	90295	96.068879068867	4
10476	90969	96.568879068867	5
10476	91881	97.278146688472	7
10476	93190	98.278288231192	11
10476	93853	98.878288231192	5
10476	94906	99.791021180534	8
10476	95397	100.160887836277	9
10476	95710	100.416874699558	8
10476	95790	100.462163759901	2
10476	96024	100.699588551599	8
10476	96488	101.108474788912	4
10476	98014	102.331651315412	14
10476	98335	102.539346458928	1
10476	98507	102.717216352255	1
10476	99261	103.460711652777	8
10476	99723	103.926332675946	12
10476	99729	103.929250069706	12
10476	99996	104.168028645618	6
10476	100750	104.769918936555	7
10476	101572	105.369918936555	5
10476	101831	105.57183367234	1
10476	102404	106.075098650814	4
10476	102441	106.10253909117	8
10476	102458	106.105838173661	0
10476	102687	106.305838173661	1
10476	103199	106.721440123038	3
10476	104282	107.521540223038	10
10476	104914	108.021540223038	4
10476	105518	108.533196592835	5
10476	105567	108.570927573652	4
10476	106269	109.138136962951	6
10476	106633	109.388706110033	1
10476	106843	109.574667827479	9
10476	106846	109.574972754236	9
10476	107968	110.475072854236	10
10476	108207	110.675072854236	1
10476	108859	111.177686678234	4
10476	109494	111.677686678234	4
10476	110069	112.148096179567	6
10476	110330	112.348196279567	2
10476	111115	113.052282810241	6
10476	111575	113.358863426125	2
10476	112132	113.76195501279	3
10476	112770	114.278470917781	8
10476	112883	114.36225875053	6
10476	113128	114.565703735124	1
10476	113192	114.640098025756	1
10476	113822	115.140437765028	5
10476	115075	116.240437765028	12
10476	115524	116.558411016267	3
10476	115552	116.582548337482	2
10476	115946	116.961156331117	4
10476	116262	117.263722737145	3
10476	116281	117.266313343593	2
10476	116317	117.285066336594	7
10476	117211	117.988843984289	6
10476	117217	117.990128122254	6
10476	117221	117.994237635043	6
10476	117236	117.995067958488	0
10476	117586	118.296089172843	2
10476	117748	118.397759939689	1
10476	118090	118.697759939689	2
10476	118827	119.307091073597	6
10476	119135	119.507191173597	2
10476	120092	120.307191173597	7
10476	121330	121.319445968383	10
10476	122330	122.219933821035	10
10476	123014	122.819933821035	5
10476	123937	123.524322420365	7
10476	124212	123.747395540818	6
10476	124526	124.049201643436	2
10476	125213	124.650957893366	6
10476	125754	125.082469992251	2
10476	126557	125.750957893366	13
10476	126578	125.788742412677	7
10476	127175	126.19780364024	4
10476	127763	126.703221020137	4
10476	128086	127.00570555126	2
10476	128492	127.312035538007	3
10476	128814	127.612035538007	2
10476	128830	127.617382221591	0
10476	129625	128.293714529967	3
10476	130557	128.993714529967	6
10476	130747	129.196274492553	1
10476	132752	131.20618579132	21
10476	133008	131.410702541803	1
10476	133345	131.712969450462	3
10476	133812	132.112969450462	3
10476	134434	132.618371841431	5
10476	135214	133.318371841431	7
10476	136721	134.530145086625	12
10476	137399	135.130740421372	5
10476	137402	135.136841917824	5
10476	137778	135.440494780533	3
10476	137783	135.446831593135	3
10477	222	20.2000001	0.75
10477	1340	21.5000001	-0.625
10477	1786	21.80938168516	0.75
10477	2059	22.018250514979	0.875
10477	2546	22.42038185973	0.5
10477	3234	23.02038185973	0.375
10477	3519	23.22797289608	0.75
10477	4204	23.72797289608	0.5
10477	4331	23.829730264856	0.5
10477	4472	23.936341921605	0.875
10477	4782	24.144311024086	0.75
10477	5047	24.344311024086	0.875
10477	5243	24.547509889079	0.875
10477	6062	25.241150003675	0.75
10477	6387	25.54165330962	0.5
10477	7048	26.14165330962	0.375
10477	7206	26.250579558418	0.375
10477	7464	26.456017485761	0.875
10477	7729	26.642807122643	0.5
10477	7735	26.645038815525	0.5
10477	7788	26.664257965352	0.875
10477	8620	27.365151988708	0.125
10477	8814	27.565151988708	0.875
10477	9479	28.071677676576	0.5
10477	9484	28.078329951206	0.5
10477	9907	28.378091064434	0.75
10477	10848	29.081765024849	-0.25
10477	11237	29.461413806862	0.75
10477	11291	29.485668487386	0.5
10477	11766	29.88775972254	0.5
10477	12161	30.188677455816	0.75
10477	12744	30.691007630345	0.5
10477	13026	30.898652933429	0.75
10477	13512	31.298652933429	0.625
10477	13759	31.500395857329	0.875
10477	14124	31.807650523518	0.75
10477	14363	32.010314762306	0.375
10477	14507	32.114293078926	0.875
10477	15204	32.814293078926	0.25
10477	15811	33.423202290843	0.375
10477	16530	34.027392258854	0.375
10477	16845	34.292614733641	0.5
10477	16902	34.332069132284	0.75
10477	17378	34.739596964285	0.5
10477	17592	34.939596964285	0.875
10477	18705	35.939587016181	0.75
10477	19023	36.239587016181	0.75
10477	19440	36.552268055286	0.75
10477	19661	36.76023445634	0.875
10477	20056	37.06033455634	0.625
10477	20408	37.36033455634	0.75
10477	20674	37.569555893894	0.875
10477	21579	38.278565522567	0.25
10477	21668	38.353502429602	0.375
10477	21929	38.559983303106	0.875
10477	22287	38.866170916928	0.625
10477	23003	39.470895334985	0.375
10477	23470	39.879851738235	0.625
10477	24146	40.379951838235	0.375
10477	24302	40.479951838235	0.875
10477	24569	40.680417467566	0.875
10477	25263	41.182902581922	0.375
10477	25532	41.384135230413	0.875
10477	26447	42.192662413894	0.125
10477	27361	42.996559662597	-0.125
10477	27728	43.296559662597	0.75
10477	28537	44.017036848174	0.375
10477	28977	44.417036848174	0.625
10477	29291	44.630812953044	0.625
10477	29412	44.782467533343	0.75
10477	29581	44.923349597788	0.25
10477	29838	45.125537198688	0.75
10477	30809	45.925537198688	0.125
10477	30817	45.929203055926	0.375
10477	31193	46.229303155926	0.625
10477	31420	46.429303155926	0.875
10477	31814	46.738269946104	0.625
10477	32121	47.038269946104	0.75
10477	32362	47.23857241257	0.875
10477	33585	48.144440743688	-0.25
10477	33853	48.344440743688	0.875
10477	34445	48.848213901177	0.375
10477	34774	49.150981420055	0.5
10477	34928	49.253403090219	0.5
10477	35270	49.55448461803	0.75
10477	35638	49.857066069673	0.25
10477	35640	49.857290439126	0.75
10477	36198	50.363531679972	0.375
10477	37755	51.563531679972	-0.625
10477	38089	51.77368029848	0.875
10477	38228	51.867864654832	0.5
10477	38614	52.171867489681	0.75
10477	38905	52.379845351633	0.75
10477	39973	53.242653142528	0.625
10477	40214	53.479845351633	-0.375
10477	40519	53.882577409004	0.625
10477	41551	54.782677509004	-0.25
10477	41923	55.082677509004	0.75
10477	42694	55.684790005985	0.125
10477	43111	56.049130646568	0.875
10477	43683	56.554919816986	0.375
10477	44078	56.854919816986	0.625
10477	44539	57.25686140855	0.625
10477	45150	57.728182169388	0.5
10477	45172	57.758134142918	0.25
10477	45353	57.933799186073	0.875
10477	45515	58.064410902069	0.75
10477	45622	58.168735622304	0.875
10477	46103	58.677802282207	0.5
10477	47521	59.777902382207	-0.5
10477	48158	60.277902382207	0.375
10477	48635	60.679506216966	0.5
10477	48853	60.889486862661	0.75
10477	49352	61.389486862661	0.5
10477	50649	62.499114525963	-0.375
10477	50871	62.676896547466	0.75
10477	50996	62.783689031845	0.875
10477	51404	63.090067860687	0.375
10477	51626	63.290067860687	0.875
10477	52202	63.79718559121	0.5
10477	52732	64.298064500829	0.5
10477	53698	65.202150203049	0
10477	54083	65.608374177987	0.625
10477	54823	66.314534737291	0.25
10477	55966	67.244617469671	0
10477	56208	67.422286033912	-0.375
10477	56871	68.050540377352	0.125
10477	57197	68.33207617727	-0.125
10477	57431	68.555105829451	0.5
10477	57437	68.56463390638	-0.375
10477	57448	68.571053192904	0.75
10477	58143	69.071153292904	0.25
10477	59115	69.871153292904	0.125
10477	60974	71.37745822765	-1.125
10477	62083	72.277775240056	-0.125
10477	62925	72.943270259785	0.625
10477	63531	73.443270259785	0.5
10477	64119	73.951016189301	0.5
10477	64532	74.27237841699	0.75
10477	64817	74.47247851699	0.625
10477	65708	75.17247851699	0.125
10477	66712	75.976236763597	0.375
10477	67967	77.061077168022	-0.125
10477	67996	77.076236763597	-0.375
10477	68163	77.278481505707	0.125
10477	68354	77.486696753683	0.75
10477	68705	77.886696753683	0.625
10477	69113	78.288804027852	0.625
10477	69133	78.305967165172	0.75
10477	69556	78.697401597429	0.625
10477	69581	78.71059766738	0.625
10477	70072	79.105323454787	0.625
10477	70093	79.119732011687	0.625
10477	70609	79.522643160837	0.5
10477	71630	80.370664118919	0.25
10477	71713	80.422643160837	-0.125
10477	72181	80.829373281589	0.625
10477	73212	81.635452537901	0
10477	74194	82.535452537901	-0.125
10477	74450	82.740035741933	0.75
10477	75018	83.241580379505	0.5
10477	75240	83.454385210905	0.875
10477	75457	83.654822016758	0.75
10477	76138	84.254822016758	0.375
10477	76692	84.767605839352	0.5
10477	77079	85.07052937526	0.75
10477	77474	85.38000223416	0.5
10477	78225	85.965806532031	0.625
10477	78232	85.98000223416	0.125
10477	78790	86.44229400693	0.125
10477	79282	86.845738175394	0.5
10477	80446	87.753796756016	0
10477	81137	88.353796756016	0.25
10477	82482	89.561793405429	-0.5
10477	82693	89.763404710811	0.875
10477	82949	89.963828218994	0.75
10477	83548	90.563828218994	0.25
10477	83760	90.768708652325	0.875
10477	84272	91.176837251436	0.625
10477	85141	91.881393775748	0.125
10477	85794	92.481393775748	0.25
10477	86765	93.283031653539	0.875
10477	87124	93.59044209972	0.75
10477	87490	93.889764023582	-0.625
10477	87831	94.193873872814	0.375
10477	87918	94.279299459682	0.375
10477	88092	94.395219601942	0.5
10477	88111	94.403108567592	1
10477	88788	94.903108567592	0.5
10477	89008	95.10964143867	0.875
10477	89118	95.184270997235	0.625
10477	89250	95.310076609822	0.75
10477	89563	95.519902228883	0.875
10477	89749	95.663730271498	0.875
10477	90295	96.068879068867	0.5
10477	90969	96.568879068867	0.375
10477	91881	97.278146688472	0.125
10477	93190	98.278288231192	-0.375
10477	93853	98.878288231192	0.375
10477	94906	99.791021180534	0
10477	95397	100.160887836277	-0.125
10477	95710	100.416874699558	0
10477	95790	100.462163759901	0.75
10477	96024	100.699588551599	0
10477	96488	101.108474788912	0.5
10477	98014	102.331651315412	-0.75
10477	98335	102.539346458928	0.875
10477	98507	102.717216352255	0.875
10477	99261	103.460711652777	0
10477	99723	103.926332675946	-0.5
10477	99729	103.929250069706	-0.5
10477	99996	104.168028645618	0.25
10477	100750	104.769918936555	0.125
10477	101572	105.369918936555	0.375
10477	101831	105.57183367234	0.875
10477	102404	106.075098650814	0.5
10477	102441	106.10253909117	0
10477	102458	106.105838173661	1
10477	102687	106.305838173661	0.875
10477	103199	106.721440123038	0.625
10477	104282	107.521540223038	-0.25
10477	104914	108.021540223038	0.5
10477	105518	108.533196592835	0.375
10477	105567	108.570927573652	0.5
10477	106269	109.138136962951	0.25
10477	106633	109.388706110033	0.875
10477	106843	109.574667827479	-0.125
10477	106846	109.574972754236	-0.125
10477	107968	110.475072854236	-0.25
10477	108207	110.675072854236	0.875
10477	108859	111.177686678234	0.5
10477	109494	111.677686678234	0.5
10477	110069	112.148096179567	0.25
10477	110330	112.348196279567	0.75
10477	111115	113.052282810241	0.25
10477	111575	113.358863426125	0.75
10477	112132	113.76195501279	0.625
10477	112770	114.278470917781	0
10477	112883	114.36225875053	0.25
10477	113128	114.565703735124	0.875
10477	113192	114.640098025756	0.875
10477	113822	115.140437765028	0.375
10477	115075	116.240437765028	-0.5
10477	115524	116.558411016267	0.625
10477	115552	116.582548337482	0.75
10477	115946	116.961156331117	0.5
10477	116262	117.263722737145	0.625
10477	116281	117.266313343593	0.75
10477	116317	117.285066336594	0.125
10477	117211	117.988843984289	0.25
10477	117217	117.990128122254	0.25
10477	117221	117.994237635043	0.25
10477	117236	117.995067958488	1
10477	117586	118.296089172843	0.75
10477	117748	118.397759939689	0.875
10477	118090	118.697759939689	0.75
10477	118827	119.307091073597	0.25
10477	119135	119.507191173597	0.75
10477	120092	120.307191173597	0.125
10477	121330	121.319445968383	-0.25
10477	122330	122.219933821035	-0.25
10477	123014	122.819933821035	0.375
10477	123937	123.524322420365	0.125
10477	124212	123.747395540818	0.25
10477	124526	124.049201643436	0.75
10477	125213	124.650957893366	0.25
10477	125754	125.082469992251	0.75
10477	126557	125.750957893366	-0.625
10477	126578	125.788742412677	0.125
10477	127175	126.19780364024	0.5
10477	127763	126.703221020137	0.5
10477	128086	127.00570555126	0.75
10477	128492	127.312035538007	0.625
10477	128814	127.612035538007	0.75
10477	128830	127.617382221591	1
10477	129625	128.293714529967	0.625
10477	130557	128.993714529967	0.25
10477	130747	129.196274492553	0.875
10477	132752	131.20618579132	-1.625
10477	133008	131.410702541803	0.875
10477	133345	131.712969450462	0.625
10477	133812	132.112969450462	0.625
10477	134434	132.618371841431	0.375
10477	135214	133.318371841431	0.125
10477	136721	134.530145086625	-0.5
10477	137399	135.130740421372	0.375
10477	137402	135.136841917824	0.375
10477	137778	135.440494780533	0.625
10477	137783	135.446831593135	0.625
10478	222	20.2000001	0.2
10478	1340	21.5000001	1.3
10478	1786	21.80938168516	0.3
10478	2059	22.018250514979	0.2
10478	2546	22.42038185973	0.4
10478	3234	23.02038185973	0.6
10478	3519	23.22797289608	0.2
10478	4204	23.72797289608	0.5
10478	4331	23.829730264856	0.5
10478	4472	23.936341921605	0.2
10478	4782	24.144311024086	0.2
10478	5047	24.344311024086	0.2
10478	5243	24.547509889079	0.2
10478	6062	25.241150003675	0.3
10478	6387	25.54165330962	0.3
10478	7048	26.14165330962	0.6
10478	7206	26.250579558418	0.6
10478	7464	26.456017485761	0.2
10478	7729	26.642807122643	0.5
10478	7735	26.645038815525	0.5
10478	7788	26.664257965352	0.2
10478	8620	27.365151988708	0.7
10478	8814	27.565151988708	0.2
10478	9479	28.071677676576	0.5
10478	9484	28.078329951206	0.5
10478	9907	28.378091064434	0.3
10478	10848	29.081765024849	1
10478	11237	29.461413806862	0.3
10478	11291	29.485668487386	0.4
10478	11766	29.88775972254	0.4
10478	12161	30.188677455816	0.3
10478	12744	30.691007630345	0.5
10478	13026	30.898652933429	0.2
10478	13512	31.298652933429	0.4
10478	13759	31.500395857329	0.2
10478	14124	31.807650523518	0.3
10478	14363	32.010314762306	0.5
10478	14507	32.114293078926	0.1
10478	15204	32.814293078926	0.7
10478	15811	33.423202290843	0.6
10478	16530	34.027392258854	0.6
10478	16845	34.292614733641	0.5
10478	16902	34.332069132284	0.3
10478	17378	34.739596964285	0.4
10478	17592	34.939596964285	0.2
10478	18705	35.939587016181	0.2
10478	19023	36.239587016181	0.3
10478	19440	36.552268055286	0.3
10478	19661	36.76023445634	0.2
10478	20056	37.06033455634	0.3
10478	20408	37.36033455634	0.3
10478	20674	37.569555893894	0.2
10478	21579	38.278565522567	0.7
10478	21668	38.353502429602	0.5
10478	21929	38.559983303106	0.2
10478	22287	38.866170916928	0.3
10478	23003	39.470895334985	0.6
10478	23470	39.879851738235	0.4
10478	24146	40.379951838235	0.5
10478	24302	40.479951838235	0.1
10478	24569	40.680417467566	0.2
10478	25263	41.182902581922	0.5
10478	25532	41.384135230413	0.2
10478	26447	42.192662413894	0.8
10478	27361	42.996559662597	0.8
10478	27728	43.296559662597	0.3
10478	28537	44.017036848174	0.5
10478	28977	44.417036848174	0.4
10478	29291	44.630812953044	0.4
10478	29412	44.782467533343	0.3
10478	29581	44.923349597788	0.5
10478	29838	45.125537198688	0.2
10478	30809	45.925537198688	0.8
10478	30817	45.929203055926	0.5
10478	31193	46.229303155926	0.3
10478	31420	46.429303155926	0.2
10478	31814	46.738269946104	0.3
10478	32121	47.038269946104	0.3
10478	32362	47.23857241257	0.2
10478	33585	48.144440743688	0.9
10478	33853	48.344440743688	0.2
10478	34445	48.848213901177	0.5
10478	34774	49.150981420055	0.5
10478	34928	49.253403090219	0.4
10478	35270	49.55448461803	0.3
10478	35638	49.857066069673	0.7
10478	35640	49.857290439126	0.3
10478	36198	50.363531679972	0.5
10478	37755	51.563531679972	1.2
10478	38089	51.77368029848	0.2
10478	38228	51.867864654832	0.3
10478	38614	52.171867489681	0.3
10478	38905	52.379845351633	0.2
10478	39973	53.242653142528	0.4
10478	40214	53.479845351633	1.1
10478	40519	53.882577409004	0.4
10478	41551	54.782677509004	0.9
10478	41923	55.082677509004	0.3
10478	42694	55.684790005985	0.6
10478	43111	56.049130646568	0.2
10478	43683	56.554919816986	0.5
10478	44078	56.854919816986	0.3
10478	44539	57.25686140855	0.4
10478	45150	57.728182169388	0.5
10478	45172	57.758134142918	0.5
10478	45353	57.933799186073	0.2
10478	45515	58.064410902069	0.3
10478	45622	58.168735622304	0.1
10478	46103	58.677802282207	0.5
10478	47521	59.777902382207	1.1
10478	48158	60.277902382207	0.5
10478	48635	60.679506216966	0.4
10478	48853	60.889486862661	0.2
10478	49352	61.389486862661	0.5
10478	50649	62.499114525963	1.1
10478	50871	62.676896547466	0.3
10478	50996	62.783689031845	0.1
10478	51404	63.090067860687	0.3
10478	51626	63.290067860687	0.2
10478	52202	63.79718559121	0.5
10478	52732	64.298064500829	0.5
10478	53698	65.202150203049	0.9
10478	54083	65.608374177987	0.4
10478	54823	66.314534737291	0.7
10478	55966	67.244617469671	0.9
10478	56208	67.422286033912	1.1
10478	56871	68.050540377352	0.8
10478	57197	68.33207617727	0.9
10478	57431	68.555105829451	0.5
10478	57437	68.56463390638	1.1
10478	57448	68.571053192904	0.3
10478	58143	69.071153292904	0.5
10478	59115	69.871153292904	0.8
10478	60974	71.37745822765	1.5
10478	62083	72.277775240056	0.9
10478	62925	72.943270259785	0.3
10478	63531	73.443270259785	0.5
10478	64119	73.951016189301	0.5
10478	64532	74.27237841699	0.3
10478	64817	74.47247851699	0.2
10478	65708	75.17247851699	0.7
10478	66712	75.976236763597	0.5
10478	67967	77.061077168022	0.9
10478	67996	77.076236763597	1.1
10478	68163	77.278481505707	0.8
10478	68354	77.486696753683	0.2
10478	68705	77.886696753683	0.4
10478	69113	78.288804027852	0.4
10478	69133	78.305967165172	0.3
10478	69556	78.697401597429	0.4
10478	69581	78.71059766738	0.4
10478	70072	79.105323454787	0.4
10478	70093	79.119732011687	0.4
10478	70609	79.522643160837	0.4
10478	71630	80.370664118919	0.7
10478	71713	80.422643160837	0.9