version 2
run Stability-9-20130526-18:48:10-1898
attr configname Stability
attr datetime 20130526-18:48:10
attr experiment Stability
attr inifile omnetpp.ini
attr iterationvars $0=1e6
attr iterationvars2 "$0=1e6, $repetition=9"
attr measurement $0=1e6
attr network Network
attr processid 1898
attr repetition 9
attr replication #9
attr resultdir results
attr runnumber 9
attr seedset 9

vector 969  Network.churner  inGoingSizeSig:vector  ETV
vector 873  Network.dyn_peer[0]  lookupHopsSig:vector  ETV
vector 874  Network.dyn_peer[0]  lookupStabilitySig:vector  ETV
vector 875  Network.dyn_peer[0]  lookupTimeSig:vector  ETV
vector 876  Network.dyn_peer[1]  lookupHopsSig:vector  ETV
vector 877  Network.dyn_peer[1]  lookupStabilitySig:vector  ETV
vector 878  Network.dyn_peer[1]  lookupTimeSig:vector  ETV
vector 879  Network.dyn_peer[2]  lookupHopsSig:vector  ETV
vector 880  Network.dyn_peer[2]  lookupStabilitySig:vector  ETV
vector 881  Network.dyn_peer[2]  lookupTimeSig:vector  ETV
vector 882  Network.dyn_peer[3]  lookupHopsSig:vector  ETV
vector 883  Network.dyn_peer[3]  lookupStabilitySig:vector  ETV
vector 884  Network.dyn_peer[3]  lookupTimeSig:vector  ETV
vector 885  Network.dyn_peer[4]  lookupHopsSig:vector  ETV
vector 886  Network.dyn_peer[4]  lookupStabilitySig:vector  ETV
vector 887  Network.dyn_peer[4]  lookupTimeSig:vector  ETV
vector 888  Network.dyn_peer[5]  lookupHopsSig:vector  ETV
vector 889  Network.dyn_peer[5]  lookupStabilitySig:vector  ETV
vector 890  Network.dyn_peer[5]  lookupTimeSig:vector  ETV
vector 891  Network.dyn_peer[6]  lookupHopsSig:vector  ETV
vector 892  Network.dyn_peer[6]  lookupStabilitySig:vector  ETV
vector 893  Network.dyn_peer[6]  lookupTimeSig:vector  ETV
vector 894  Network.dyn_peer[7]  lookupHopsSig:vector  ETV
vector 895  Network.dyn_peer[7]  lookupStabilitySig:vector  ETV
vector 896  Network.dyn_peer[7]  lookupTimeSig:vector  ETV
vector 897  Network.dyn_peer[8]  lookupHopsSig:vector  ETV
vector 898  Network.dyn_peer[8]  lookupStabilitySig:vector  ETV
vector 899  Network.dyn_peer[8]  lookupTimeSig:vector  ETV
vector 900  Network.dyn_peer[9]  lookupHopsSig:vector  ETV
vector 901  Network.dyn_peer[9]  lookupStabilitySig:vector  ETV
vector 902  Network.dyn_peer[9]  lookupTimeSig:vector  ETV
vector 903  Network.dyn_peer[10]  lookupHopsSig:vector  ETV
vector 904  Network.dyn_peer[10]  lookupStabilitySig:vector  ETV
vector 905  Network.dyn_peer[10]  lookupTimeSig:vector  ETV
vector 906  Network.dyn_peer[11]  lookupHopsSig:vector  ETV
vector 907  Network.dyn_peer[11]  lookupStabilitySig:vector  ETV
vector 908  Network.dyn_peer[11]  lookupTimeSig:vector  ETV
vector 909  Network.dyn_peer[12]  lookupHopsSig:vector  ETV
vector 910  Network.dyn_peer[12]  lookupStabilitySig:vector  ETV
vector 911  Network.dyn_peer[12]  lookupTimeSig:vector  ETV
vector 912  Network.dyn_peer[13]  lookupHopsSig:vector  ETV
vector 913  Network.dyn_peer[13]  lookupStabilitySig:vector  ETV
vector 914  Network.dyn_peer[13]  lookupTimeSig:vector  ETV
vector 915  Network.dyn_peer[14]  lookupHopsSig:vector  ETV
vector 916  Network.dyn_peer[14]  lookupStabilitySig:vector  ETV
vector 917  Network.dyn_peer[14]  lookupTimeSig:vector  ETV
vector 918  Network.dyn_peer[15]  lookupHopsSig:vector  ETV
vector 919  Network.dyn_peer[15]  lookupStabilitySig:vector  ETV
vector 920  Network.dyn_peer[15]  lookupTimeSig:vector  ETV
vector 921  Network.dyn_peer[16]  lookupHopsSig:vector  ETV
vector 922  Network.dyn_peer[16]  lookupStabilitySig:vector  ETV
vector 923  Network.dyn_peer[16]  lookupTimeSig:vector  ETV
vector 924  Network.dyn_peer[17]  lookupHopsSig:vector  ETV
vector 925  Network.dyn_peer[17]  lookupStabilitySig:vector  ETV
vector 926  Network.dyn_peer[17]  lookupTimeSig:vector  ETV
vector 927  Network.dyn_peer[18]  lookupHopsSig:vector  ETV
vector 928  Network.dyn_peer[18]  lookupStabilitySig:vector  ETV
vector 929  Network.dyn_peer[18]  lookupTimeSig:vector  ETV
vector 930  Network.dyn_peer[19]  lookupHopsSig:vector  ETV
vector 931  Network.dyn_peer[19]  lookupStabilitySig:vector  ETV
vector 932  Network.dyn_peer[19]  lookupTimeSig:vector  ETV
vector 933  Network.dyn_peer[20]  lookupHopsSig:vector  ETV
vector 934  Network.dyn_peer[20]  lookupStabilitySig:vector  ETV
vector 935  Network.dyn_peer[20]  lookupTimeSig:vector  ETV
vector 936  Network.dyn_peer[21]  lookupHopsSig:vector  ETV
vector 937  Network.dyn_peer[21]  lookupStabilitySig:vector  ETV
vector 938  Network.dyn_peer[21]  lookupTimeSig:vector  ETV
vector 939  Network.dyn_peer[22]  lookupHopsSig:vector  ETV
vector 940  Network.dyn_peer[22]  lookupStabilitySig:vector  ETV
vector 941  Network.dyn_peer[22]  lookupTimeSig:vector  ETV
vector 942  Network.dyn_peer[23]  lookupHopsSig:vector  ETV
vector 943  Network.dyn_peer[23]  lookupStabilitySig:vector  ETV
vector 944  Network.dyn_peer[23]  lookupTimeSig:vector  ETV
vector 945  Network.dyn_peer[24]  lookupHopsSig:vector  ETV
vector 946  Network.dyn_peer[24]  lookupStabilitySig:vector  ETV
vector 947  Network.dyn_peer[24]  lookupTimeSig:vector  ETV
vector 948  Network.dyn_peer[25]  lookupHopsSig:vector  ETV
vector 949  Network.dyn_peer[25]  lookupStabilitySig:vector  ETV
vector 950  Network.dyn_peer[25]  lookupTimeSig:vector  ETV
vector 951  Network.dyn_peer[26]  lookupHopsSig:vector  ETV
vector 952  Network.dyn_peer[26]  lookupStabilitySig:vector  ETV
vector 953  Network.dyn_peer[26]  lookupTimeSig:vector  ETV
vector 954  Network.dyn_peer[27]  lookupHopsSig:vector  ETV
vector 955  Network.dyn_peer[27]  lookupStabilitySig:vector  ETV
vector 956  Network.dyn_peer[27]  lookupTimeSig:vector  ETV
vector 957  Network.dyn_peer[28]  lookupHopsSig:vector  ETV
vector 958  Network.dyn_peer[28]  lookupStabilitySig:vector  ETV
vector 959  Network.dyn_peer[28]  lookupTimeSig:vector  ETV
vector 960  Network.dyn_peer[29]  lookupHopsSig:vector  ETV
vector 961  Network.dyn_peer[29]  lookupStabilitySig:vector  ETV
vector 962  Network.dyn_peer[29]  lookupTimeSig:vector  ETV
vector 963  Network.dyn_peer[30]  lookupHopsSig:vector  ETV
vector 964  Network.dyn_peer[30]  lookupStabilitySig:vector  ETV
vector 965  Network.dyn_peer[30]  lookupTimeSig:vector  ETV
vector 966  Network.dyn_peer[31]  lookupHopsSig:vector  ETV
vector 967  Network.dyn_peer[31]  lookupStabilitySig:vector  ETV
vector 968  Network.dyn_peer[31]  lookupTimeSig:vector  ETV
873	32	1020.2	2
873	37	1020.406004007117	1
873	42	1020.6161358769	1
873	46	1020.8210456736	1
873	1097	33020.2	2
873	1101	33020.405075764404	1
873	1108	33020.72341719324	2
873	1113	33020.934078022264	1
873	2159	65020.1	1
873	2162	65020.3	1
873	2168	65020.504892735896	1
873	2173	65020.810363905865	2
873	3191	97020.2	2
873	3205	97020.457016795428	1
873	3210	97020.663179100094	1
873	3217	97020.881785576711	1
873	4232	129020.2	2
873	4237	129020.41079592443	1
873	4242	129020.712070603702	2
873	4247	129020.921597996969	1
873	5304	161020.1	1
873	5308	161020.307346838412	1
873	5314	161020.617316771335	2
873	5318	161020.823238647248	1
873	6318	193020.1	1
873	6321	193020.3	1
873	6325	193020.502013804507	1
873	6330	193020.71635313653	1
873	7362	225020.1	1
873	7366	225020.4	2
873	7371	225020.609000127391	1
873	7376	225020.818331651059	1
873	8382	257020.1	1
873	8385	257020.3	1
873	8390	257020.600998062556	2
873	8394	257020.805930928785	1
873	9408	289020.1	1
873	9411	289020.3	1
873	9419	289020.617630381153	2
873	9423	289020.821096453419	1
873	10457	321020.1	1
873	10460	321020.3	1
873	10464	321020.509953914342	1
873	10469	321020.812016521831	2
873	11491	353020.2	2
873	11495	353020.409765295023	1
873	11506	353020.755133837525	2
873	11510	353020.964530422299	1
873	12518	385020.2	2
873	12523	385020.405037045063	1
873	12527	385020.605073350424	1
873	12532	385020.9064668279	2
873	13567	417020.1	1
873	13570	417020.3	1
873	13580	417020.540754834448	1
873	13588	417020.868145981205	2
873	14610	449020.1	1
873	14613	449020.3	1
873	14621	449020.617187104521	2
873	14630	449020.831529001212	1
873	15659	481020.1	1
873	15663	481020.4	2
873	15667	481020.609594424206	1
873	15676	481020.945720023843	2
873	16695	513020.2	2
873	16699	513020.400581836225	1
873	16703	513020.601532613236	1
873	16718	513020.848781039032	1
873	17755	545020.2	2
873	17758	545020.4	1
873	17763	545020.604981246112	1
873	17773	545020.93021968722	2
873	18798	577020.1	1
873	18802	577020.4	2
873	18806	577020.607036982143	1
873	18814	577020.93432484798	2
873	19867	609020.2	2
873	19872	609020.503512176661	2
873	19877	609020.70640912269	1
873	19882	609020.919161615385	1
873	20905	641020.1	1
873	20909	641020.4	2
873	20915	641020.604137381163	1
873	20919	641020.806948322997	1
873	21968	673020	0
873	21972	673020.206579743798	1
873	21977	673020.417945548614	1
873	21988	673020.651301695571	1
873	23009	705020	0
873	23013	705020.3	2
873	23017	705020.503457839146	1
873	23022	705020.720002164983	1
873	24045	737020.1	1
873	24048	737020.3	1
873	24054	737020.508077492405	1
873	24060	737020.724687918393	1
873	25069	769020.1	1
873	25073	769020.4	2
873	25079	769020.708209299959	2
873	25084	769020.920388271749	1
873	26089	801020.2	2
873	26093	801020.400574361695	1
873	26101	801020.633426437496	1
873	26110	801020.870723248026	1
873	27114	833020.1	1
873	27118	833020.4	2
873	27122	833020.601677271651	1
873	27126	833020.810736799907	1
873	28145	865020.1	1
873	28149	865020.4	2
873	28154	865020.707840371453	2
873	28158	865020.914955057354	1
873	29143	897020.1	1
873	29147	897020.4	2
873	29151	897020.603000124569	1
873	29155	897020.805865148116	1
873	30182	929020.2	2
873	30186	929020.5	2
873	30190	929020.709704475351	1
873	30207	929020.98489565049	1
873	31234	961020.1	1
873	31238	961020.4	2
873	31242	961020.600556345449	1
873	31246	961020.801711008578	1
873	32268	993020.1	1
873	32271	993020.3	1
873	32277	993020.512128966088	1
873	32282	993020.815966020066	2
873	33312	1025020.2	2
873	33316	1025020.5	2
873	33323	1025020.7154898876	1
873	33328	1025021.020689329451	2
873	34336	1057020.1	1
873	34340	1057020.4	2
873	34344	1057020.608393062038	1
873	34348	1057020.816448958049	1
873	35384	1089020.1	1
873	35390	1089020.305620747738	1
873	35395	1089020.515045025509	1
873	35400	1089020.728782486304	1
873	36429	1121020.1	1
873	36432	1121020.3	1
873	36443	1121020.541374923371	1
873	36448	1121020.847187022139	2
873	37485	1153020.1	1
873	37488	1153020.3	1
873	37493	1153020.602644252642	2
873	37497	1153020.807101599236	1
873	38522	1185020	0
873	38526	1185020.3	2
873	38531	1185020.60044548958	2
873	38540	1185020.913215847074	2
873	39569	1217020.2	2
873	39573	1217020.5	2
873	39577	1217020.707916581779	1
873	39581	1217020.914967569649	1
873	40596	1249020.2	2
873	40599	1249020.4	1
873	40603	1249020.602527617851	1
873	40607	1249020.806672662882	1
873	41627	1281020.1	1
873	41631	1281020.4	2
873	41637	1281020.717172248295	2
873	41642	1281020.929477940568	1
873	42664	1313020.2	2
873	42670	1313020.508170129072	2
873	42674	1313020.710056871743	1
873	42678	1313020.919145812421	1
873	43686	1345020.2	2
873	43689	1345020.4	1
873	43694	1345020.706568987802	2
873	43698	1345020.909714011144	1
873	44755	1377020.2	2
873	44759	1377020.5	2
873	44763	1377020.705072400271	1
873	44768	1377020.917668055185	1
873	45799	1409020.2	2
873	45802	1409020.4	1
873	45807	1409020.707155358449	2
873	45811	1409020.911846547352	1
873	46859	1441020	0
873	46863	1441020.3	2
873	46868	1441020.602782142695	2
873	46873	1441020.815517655796	1
873	47876	1473020.2	2
873	47879	1473020.4	1
873	47884	1473020.709929804287	2
873	47891	1473020.918109811812	1
873	48920	1505020.2	2
873	48924	1505020.5	2
873	48929	1505020.800134742672	2
873	48934	1505021.109916428173	2
873	49955	1537020	0
873	49958	1537020.2	1
873	49963	1537020.405125583833	1
873	49969	1537020.622642908604	1
873	51021	1569020.2	2
873	51024	1569020.4	1
873	51028	1569020.603378708045	1
873	51035	1569020.920287453353	2
873	52081	1601020.1	1
873	52084	1601020.3	1
873	52092	1601020.525995385847	1
873	52098	1601020.742807664281	1
873	53098	1633020.1	1
873	53102	1633020.4	2
873	53106	1633020.606725175664	1
873	53110	1633020.812812052459	1
873	54138	1665020.2	2
873	54141	1665020.4	1
873	54145	1665020.605974267902	1
873	54149	1665020.810452261564	1
873	55156	1697020.1	1
873	55160	1697020.4	2
873	55173	1697020.734002130125	2
873	55179	1697020.944229476566	1
873	56194	1729020.1	1
873	56197	1729020.3	1
873	56203	1729020.611140422566	2
873	56211	1729020.834122610739	1
873	57220	1761020.1	1
873	57225	1761020.31400785501	1
873	57229	1761020.514616867186	1
873	57233	1761020.724276268273	1
873	58270	1793020.1	1
873	58273	1793020.3	1
873	58280	1793020.62192316958	2
873	58284	1793020.828480463167	1
873	59287	1825020	0
873	59290	1825020.2	1
873	59294	1825020.406908296819	1
873	59300	1825020.719052853791	2
873	60325	1857020.1	1
873	60329	1857020.4	2
873	60333	1857020.605200901459	1
873	60346	1857020.862775687858	1
873	61364	1889020.1	1
873	61367	1889020.3	1
873	61372	1889020.605064708713	2
873	61378	1889020.911157553327	2
873	62406	1921020.2	2
873	62409	1921020.4	1
873	62413	1921020.604235723796	1
873	62418	1921020.815503547032	1
873	63448	1953020	0
873	63452	1953020.3	2
873	63459	1953020.616280658432	2
873	63463	1953020.823352686817	1
873	64481	1985020.1	1
873	64484	1985020.3	1
873	64489	1985020.510661933982	1
873	64495	1985020.721117691415	1
873	65506	2017020.1	1
873	65509	2017020.3	1
873	65513	2017020.503913796839	1
873	65517	2017020.707661748504	1
874	32	1020.2	0.75
874	37	1020.406004007117	0.875
874	42	1020.6161358769	0.875
874	46	1020.8210456736	0.875
874	1097	33020.2	0.75
874	1101	33020.405075764404	0.875
874	1108	33020.72341719324	0.75
874	1113	33020.934078022264	0.875
874	2159	65020.1	0.875
874	2162	65020.3	0.875
874	2168	65020.504892735896	0.875
874	2173	65020.810363905865	0.75
874	3191	97020.2	0.75
874	3205	97020.457016795428	0.875
874	3210	97020.663179100094	0.875
874	3217	97020.881785576711	0.875
874	4232	129020.2	0.75
874	4237	129020.41079592443	0.875
874	4242	129020.712070603702	0.75
874	4247	129020.921597996969	0.875
874	5304	161020.1	0.875
874	5308	161020.307346838412	0.875
874	5314	161020.617316771335	0.75
874	5318	161020.823238647248	0.875
874	6318	193020.1	0.875
874	6321	193020.3	0.875
874	6325	193020.502013804507	0.875
874	6330	193020.71635313653	0.875
874	7362	225020.1	0.875
874	7366	225020.4	0.75
874	7371	225020.609000127391	0.875
874	7376	225020.818331651059	0.875
874	8382	257020.1	0.875
874	8385	257020.3	0.875
874	8390	257020.600998062556	0.75
874	8394	257020.805930928785	0.875
874	9408	289020.1	0.875
874	9411	289020.3	0.875
874	9419	289020.617630381153	0.75
874	9423	289020.821096453419	0.875
874	10457	321020.1	0.875
874	10460	321020.3	0.875
874	10464	321020.509953914342	0.875
874	10469	321020.812016521831	0.75
874	11491	353020.2	0.75
874	11495	353020.409765295023	0.875
874	11506	353020.755133837525	0.75
874	11510	353020.964530422299	0.875
874	12518	385020.2	0.75
874	12523	385020.405037045063	0.875
874	12527	385020.605073350424	0.875
874	12532	385020.9064668279	0.75
874	13567	417020.1	0.875
874	13570	417020.3	0.875
874	13580	417020.540754834448	0.875
874	13588	417020.868145981205	0.75
874	14610	449020.1	0.875
874	14613	449020.3	0.875
874	14621	449020.617187104521	0.75
874	14630	449020.831529001212	0.875
874	15659	481020.1	0.875
874	15663	481020.4	0.75
874	15667	481020.609594424206	0.875
874	15676	481020.945720023843	0.75
874	16695	513020.2	0.75
874	16699	513020.400581836225	0.875
874	16703	513020.601532613236	0.875
874	16718	513020.848781039032	0.875
874	17755	545020.2	0.75
874	17758	545020.4	0.875
874	17763	545020.604981246112	0.875
874	17773	545020.93021968722	0.75
874	18798	577020.1	0.875
874	18802	577020.4	0.75
874	18806	577020.607036982143	0.875
874	18814	577020.93432484798	0.75
874	19867	609020.2	0.75
874	19872	609020.503512176661	0.75
874	19877	609020.70640912269	0.875
874	19882	609020.919161615385	0.875
874	20905	641020.1	0.875
874	20909	641020.4	0.75
874	20915	641020.604137381163	0.875
874	20919	641020.806948322997	0.875
874	21968	673020	1
874	21972	673020.206579743798	0.875
874	21977	673020.417945548614	0.875
874	21988	673020.651301695571	0.875
874	23009	705020	1
874	23013	705020.3	0.75
874	23017	705020.503457839146	0.875
874	23022	705020.720002164983	0.875
874	24045	737020.1	0.875
874	24048	737020.3	0.875
874	24054	737020.508077492405	0.875
874	24060	737020.724687918393	0.875
874	25069	769020.1	0.875
874	25073	769020.4	0.75
874	25079	769020.708209299959	0.75
874	25084	769020.920388271749	0.875
874	26089	801020.2	0.75
874	26093	801020.400574361695	0.875
874	26101	801020.633426437496	0.875
874	26110	801020.870723248026	0.875
874	27114	833020.1	0.875
874	27118	833020.4	0.75
874	27122	833020.601677271651	0.875
874	27126	833020.810736799907	0.875
874	28145	865020.1	0.875
874	28149	865020.4	0.75
874	28154	865020.707840371453	0.75
874	28158	865020.914955057354	0.875
874	29143	897020.1	0.875
874	29147	897020.4	0.75
874	29151	897020.603000124569	0.875
874	29155	897020.805865148116	0.875
874	30182	929020.2	0.75
874	30186	929020.5	0.75
874	30190	929020.709704475351	0.875
874	30207	929020.98489565049	0.875
874	31234	961020.1	0.875
874	31238	961020.4	0.75
874	31242	961020.600556345449	0.875
874	31246	961020.801711008578	0.875
874	32268	993020.1	0.875
874	32271	993020.3	0.875
874	32277	993020.512128966088	0.875
874	32282	993020.815966020066	0.75
874	33312	1025020.2	0.75
874	33316	1025020.5	0.75
874	33323	1025020.7154898876	0.875
874	33328	1025021.020689329451	0.75
874	34336	1057020.1	0.875
874	34340	1057020.4	0.75
874	34344	1057020.608393062038	0.875
874	34348	1057020.816448958049	0.875
874	35384	1089020.1	0.875
874	35390	1089020.305620747738	0.875
874	35395	1089020.515045025509	0.875
874	35400	1089020.728782486304	0.875
874	36429	1121020.1	0.875
874	36432	1121020.3	0.875
874	36443	1121020.541374923371	0.875
874	36448	1121020.847187022139	0.75
874	37485	1153020.1	0.875
874	37488	1153020.3	0.875
874	37493	1153020.602644252642	0.75
874	37497	1153020.807101599236	0.875
874	38522	1185020	1
874	38526	1185020.3	0.75
874	38531	1185020.60044548958	0.75
874	38540	1185020.913215847074	0.75
874	39569	1217020.2	0.75
874	39573	1217020.5	0.75
874	39577	1217020.707916581779	0.875
874	39581	1217020.914967569649	0.875
874	40596	1249020.2	0.75
874	40599	1249020.4	0.875
874	40603	1249020.602527617851	0.875
874	40607	1249020.806672662882	0.875
874	41627	1281020.1	0.875
874	41631	1281020.4	0.75
874	41637	1281020.717172248295	0.75
874	41642	1281020.929477940568	0.875
874	42664	1313020.2	0.75
874	42670	1313020.508170129072	0.75
874	42674	1313020.710056871743	0.875
874	42678	1313020.919145812421	0.875
874	43686	1345020.2	0.75
874	43689	1345020.4	0.875
874	43694	1345020.706568987802	0.75
874	43698	1345020.909714011144	0.875
874	44755	1377020.2	0.75
874	44759	1377020.5	0.75
874	44763	1377020.705072400271	0.875
874	44768	1377020.917668055185	0.875
874	45799	1409020.2	0.75
874	45802	1409020.4	0.875
874	45807	1409020.707155358449	0.75
874	45811	1409020.911846547352	0.875
874	46859	1441020	1
874	46863	1441020.3	0.75
874	46868	1441020.602782142695	0.75
874	46873	1441020.815517655796	0.875
874	47876	1473020.2	0.75
874	47879	1473020.4	0.875
874	47884	1473020.709929804287	0.75
874	47891	1473020.918109811812	0.875
874	48920	1505020.2	0.75
874	48924	1505020.5	0.75
874	48929	1505020.800134742672	0.75
874	48934	1505021.109916428173	0.75
874	49955	1537020	1
874	49958	1537020.2	0.875
874	49963	1537020.405125583833	0.875
874	49969	1537020.622642908604	0.875
874	51021	1569020.2	0.75
874	51024	1569020.4	0.875
874	51028	1569020.603378708045	0.875
874	51035	1569020.920287453353	0.75
874	52081	1601020.1	0.875
874	52084	1601020.3	0.875
874	52092	1601020.525995385847	0.875
874	52098	1601020.742807664281	0.875
874	53098	1633020.1	0.875
874	53102	1633020.4	0.75
874	53106	1633020.606725175664	0.875
874	53110	1633020.812812052459	0.875
874	54138	1665020.2	0.75
874	54141	1665020.4	0.875
874	54145	1665020.605974267902	0.875
874	54149	1665020.810452261564	0.875
874	55156	1697020.1	0.875
874	55160	1697020.4	0.75
874	55173	1697020.734002130125	0.75
874	55179	1697020.944229476566	0.875
874	56194	1729020.1	0.875
874	56197	1729020.3	0.875
874	56203	1729020.611140422566	0.75
874	56211	1729020.834122610739	0.875
874	57220	1761020.1	0.875
874	57225	1761020.31400785501	0.875
874	57229	1761020.514616867186	0.875
874	57233	1761020.724276268273	0.875
874	58270	1793020.1	0.875
874	58273	1793020.3	0.875
874	58280	1793020.62192316958	0.75
874	58284	1793020.828480463167	0.875
874	59287	1825020	1
874	59290	1825020.2	0.875
874	59294	1825020.406908296819	0.875
874	59300	1825020.719052853791	0.75
874	60325	1857020.1	0.875
874	60329	1857020.4	0.75
874	60333	1857020.605200901459	0.875
874	60346	1857020.862775687858	0.875
874	61364	1889020.1	0.875
874	61367	1889020.3	0.875
874	61372	1889020.605064708713	0.75
874	61378	1889020.911157553327	0.75
874	62406	1921020.2	0.75
874	62409	1921020.4	0.875
874	62413	1921020.604235723796	0.875
874	62418	1921020.815503547032	0.875
874	63448	1953020	1
874	63452	1953020.3	0.75
874	63459	1953020.616280658432	0.75
874	63463	1953020.823352686817	0.875
874	64481	1985020.1	0.875
874	64484	1985020.3	0.875
874	64489	1985020.510661933982	0.875
874	64495	1985020.721117691415	0.875
874	65506	2017020.1	0.875
874	65509	2017020.3	0.875
874	65513	2017020.503913796839	0.875
874	65517	2017020.707661748504	0.875
875	32	1020.2	0.2
875	37	1020.406004007117	0.2
875	42	1020.6161358769	0.2
875	46	1020.8210456736	0.2
875	1097	33020.2	0.2
875	1101	33020.405075764404	0.2
875	1108	33020.72341719324	0.3
875	1113	33020.934078022264	0.2
875	2159	65020.1	0.1
875	2162	65020.3	0.2
875	2168	65020.504892735896	0.2
875	2173	65020.810363905865	0.3
875	3191	97020.2	0.2
875	3205	97020.457016795428	0.2
875	3210	97020.663179100094	0.2
875	3217	97020.881785576711	0.2
875	4232	129020.2	0.2
875	4237	129020.41079592443	0.2
875	4242	129020.712070603702	0.3
875	4247	129020.921597996969	0.2
875	5304	161020.1	0.1
875	5308	161020.307346838412	0.2
875	5314	161020.617316771335	0.3
875	5318	161020.823238647248	0.2
875	6318	193020.1	0.1
875	6321	193020.3	0.2
875	6325	193020.502013804507	0.2
875	6330	193020.71635313653	0.2
875	7362	225020.1	0.1
875	7366	225020.4	0.3
875	7371	225020.609000127391	0.2
875	7376	225020.818331651059	0.2
875	8382	257020.1	0.1
875	8385	257020.3	0.2
875	8390	257020.600998062556	0.3
875	8394	257020.805930928785	0.2
875	9408	289020.1	0.1
875	9411	289020.3	0.2
875	9419	289020.617630381153	0.3
875	9423	289020.821096453419	0.2
875	10457	321020.1	0.1
875	10460	321020.3	0.2
875	10464	321020.509953914342	0.2
875	10469	321020.812016521831	0.3
875	11491	353020.2	0.2
875	11495	353020.409765295023	0.2
875	11506	353020.755133837525	0.3
875	11510	353020.964530422299	0.2
875	12518	385020.2	0.2
875	12523	385020.405037045063	0.2
875	12527	385020.605073350424	0.2
875	12532	385020.9064668279	0.3
875	13567	417020.1	0.1
875	13570	417020.3	0.2
875	13580	417020.540754834448	0.2
875	13588	417020.868145981205	0.3
875	14610	449020.1	0.1
875	14613	449020.3	0.2
875	14621	449020.617187104521	0.3
875	14630	449020.831529001212	0.2
875	15659	481020.1	0.1
875	15663	481020.4	0.3
875	15667	481020.609594424206	0.2
875	15676	481020.945720023843	0.3
875	16695	513020.2	0.2
875	16699	513020.400581836225	0.2
875	16703	513020.601532613236	0.2
875	16718	513020.848781039032	0.2
875	17755	545020.2	0.2
875	17758	545020.4	0.2
875	17763	545020.604981246112	0.2
875	17773	545020.93021968722	0.3
875	18798	577020.1	0.1
875	18802	577020.4	0.3
875	18806	577020.607036982143	0.2
875	18814	577020.93432484798	0.3
875	19867	609020.2	0.2
875	19872	609020.503512176661	0.3
875	19877	609020.70640912269	0.2
875	19882	609020.919161615385	0.2
875	20905	641020.1	0.1
875	20909	641020.4	0.3
875	20915	641020.604137381163	0.2
875	20919	641020.806948322997	0.2
875	21968	673020	0
875	21972	673020.206579743798	0.2
875	21977	673020.417945548614	0.2
875	21988	673020.651301695571	0.2
875	23009	705020	0
875	23013	705020.3	0.3
875	23017	705020.503457839146	0.2
875	23022	705020.720002164983	0.2
875	24045	737020.1	0.1
875	24048	737020.3	0.2
875	24054	737020.508077492405	0.2
875	24060	737020.724687918393	0.2
875	25069	769020.1	0.1
875	25073	769020.4	0.3
875	25079	769020.708209299959	0.3
875	25084	769020.920388271749	0.2
875	26089	801020.2	0.2
875	26093	801020.400574361695	0.2
875	26101	801020.633426437496	0.2
875	26110	801020.870723248026	0.2
875	27114	833020.1	0.1
875	27118	833020.4	0.3
875	27122	833020.601677271651	0.2
875	27126	833020.810736799907	0.2
875	28145	865020.1	0.1
875	28149	865020.4	0.3
875	28154	865020.707840371453	0.3
875	28158	865020.914955057354	0.2
875	29143	897020.1	0.1
875	29147	897020.4	0.3
875	29151	897020.603000124569	0.2
875	29155	897020.805865148116	0.2
875	30182	929020.2	0.2
875	30186	929020.5	0.3
875	30190	929020.709704475351	0.2
875	30207	929020.98489565049	0.2
875	31234	961020.1	0.1
875	31238	961020.4	0.3
875	31242	961020.600556345449	0.2
875	31246	961020.801711008578	0.2
875	32268	993020.1	0.1
875	32271	993020.3	0.2
875	32277	993020.512128966088	0.2
875	32282	993020.815966020066	0.3
875	33312	1025020.2	0.2
875	33316	1025020.5	0.3
875	33323	1025020.7154898876	0.2
875	33328	1025021.020689329451	0.3
875	34336	1057020.1	0.1
875	34340	1057020.4	0.3
875	34344	1057020.608393062038	0.2
875	34348	1057020.816448958049	0.2
875	35384	1089020.1	0.1
875	35390	1089020.305620747738	0.2
875	35395	1089020.515045025509	0.2
875	35400	1089020.728782486304	0.2
875	36429	1121020.1	0.1
875	36432	1121020.3	0.2
875	36443	1121020.541374923371	0.2
875	36448	1121020.847187022139	0.3
875	37485	1153020.1	0.1
875	37488	1153020.3	0.2
875	37493	1153020.602644252642	0.3
875	37497	1153020.807101599236	0.2
875	38522	1185020	0
875	38526	1185020.3	0.3
875	38531	1185020.60044548958	0.3
875	38540	1185020.913215847074	0.3
875	39569	1217020.2	0.2
875	39573	1217020.5	0.3
875	39577	1217020.707916581779	0.2
875	39581	1217020.914967569649	0.2
875	40596	1249020.2	0.2
875	40599	1249020.4	0.2
875	40603	1249020.602527617851	0.2
875	40607	1249020.806672662882	0.2
875	41627	1281020.1	0.1
875	41631	1281020.4	0.3
875	41637	1281020.717172248295	0.3
875	41642	1281020.929477940568	0.2
875	42664	1313020.2	0.2
875	42670	1313020.508170129072	0.3
875	42674	1313020.710056871743	0.2
875	42678	1313020.919145812421	0.2
875	43686	1345020.2	0.2
875	43689	1345020.4	0.2
875	43694	1345020.706568987802	0.3
875	43698	1345020.909714011144	0.2
875	44755	1377020.2	0.2
875	44759	1377020.5	0.3
875	44763	1377020.705072400271	0.2
875	44768	1377020.917668055185	0.2
875	45799	1409020.2	0.2
875	45802	1409020.4	0.2
875	45807	1409020.707155358449	0.3
875	45811	1409020.911846547352	0.2
875	46859	1441020	0
875	46863	1441020.3	0.3
875	46868	1441020.602782142695	0.3
875	46873	1441020.815517655796	0.2
875	47876	1473020.2	0.2
875	47879	1473020.4	0.2
875	47884	1473020.709929804287	0.3
875	47891	1473020.918109811812	0.2
875	48920	1505020.2	0.2
875	48924	1505020.5	0.3
875	48929	1505020.800134742672	0.3
875	48934	1505021.109916428173	0.3
875	49955	1537020	0
875	49958	1537020.2	0.2
875	49963	1537020.405125583833	0.2
875	49969	1537020.622642908604	0.2
875	51021	1569020.2	0.2
875	51024	1569020.4	0.2
875	51028	1569020.603378708045	0.2
875	51035	1569020.920287453353	0.3
875	52081	1601020.1	0.1
875	52084	1601020.3	0.2
875	52092	1601020.525995385847	0.2
875	52098	1601020.742807664281	0.2
875	53098	1633020.1	0.1
875	53102	1633020.4	0.3
875	53106	1633020.606725175664	0.2
875	53110	1633020.812812052459	0.2
875	54138	1665020.2	0.2
875	54141	1665020.4	0.2
875	54145	1665020.605974267902	0.2
875	54149	1665020.810452261564	0.2
875	55156	1697020.1	0.1
875	55160	1697020.4	0.3
875	55173	1697020.734002130125	0.3
875	55179	1697020.944229476566	0.2
875	56194	1729020.1	0.1
875	56197	1729020.3	0.2
875	56203	1729020.611140422566	0.3
875	56211	1729020.834122610739	0.2
875	57220	1761020.1	0.1
875	57225	1761020.31400785501	0.2
875	57229	1761020.514616867186	0.2
875	57233	1761020.724276268273	0.2
875	58270	1793020.1	0.1
875	58273	1793020.3	0.2
875	58280	1793020.62192316958	0.3
875	58284	1793020.828480463167	0.2
875	59287	1825020	0
875	59290	1825020.2	0.2
875	59294	1825020.406908296819	0.2
875	59300	1825020.719052853791	0.3
875	60325	1857020.1	0.1
875	60329	1857020.4	0.3
875	60333	1857020.605200901459	0.2
875	60346	1857020.862775687858	0.2
875	61364	1889020.1	0.1
875	61367	1889020.3	0.2
875	61372	1889020.605064708713	0.3
875	61378	1889020.911157553327	0.3
875	62406	1921020.2	0.2
875	62409	1921020.4	0.2
875	62413	1921020.604235723796	0.2
875	62418	1921020.815503547032	0.2
875	63448	1953020	0
875	63452	1953020.3	0.3
875	63459	1953020.616280658432	0.3
875	63463	1953020.823352686817	0.2
875	64481	1985020.1	0.1
875	64484	1985020.3	0.2
875	64489	1985020.510661933982	0.2
875	64495	1985020.721117691415	0.2
875	65506	2017020.1	0.1
875	65509	2017020.3	0.2
875	65513	2017020.503913796839	0.2
875	65517	2017020.707661748504	0.2
876	63	2020.1	1
876	67	2020.4	2
876	79	2020.754175512921	2
876	84	2020.970852695707	1
876	1130	34020.1	1
876	1134	34020.4	2
876	1143	34020.630780785141	1
876	1147	34020.839967386458	1
876	2191	66020.2	2
876	2196	66020.409729620264	1
876	2200	66020.61318061201	1
876	2204	66020.813496691552	1
876	3235	98020.2	2
876	3239	98020.5	2
876	3244	98020.809813360811	2
876	3248	98021.013716958716	1
876	4265	130020.2	2
876	4270	130020.504213276249	2
876	4278	130020.824854559209	2
876	4285	130021.040458172527	1
876	5336	162020.2	2
876	5339	162020.4	1
876	5343	162020.604485185104	1
876	5348	162020.912681618656	2
876	6346	194020	0
876	6350	194020.3	2
876	6355	194020.513447682651	1
876	6359	194020.721264406711	1
876	7393	226020.1	1
876	7396	226020.3	1
876	7400	226020.509045031389	1
876	7405	226020.810072633304	2
876	8411	258020.1	1
876	8414	258020.3	1
876	8419	258020.516070810609	1
876	8427	258020.842971529972	2
876	9439	290020	0
876	9442	290020.2	1
876	9446	290020.408375674374	1
876	9452	290020.623288237527	1
876	10485	322020	0
876	10489	322020.3	2
876	10494	322020.501117740342	1
876	10502	322020.822612058433	2
876	11527	354020.1	1
876	11530	354020.3	1
876	11534	354020.504331604887	1
876	11538	354020.706182009489	1
876	12550	386020.2	2
876	12553	386020.4	1
876	12559	386020.608206113461	1
876	12565	386020.822490290421	1
876	13606	418020.2	2