version 2
run Stability-130-20130526-18:55:54-1898
attr configname Stability
attr datetime 20130526-18:55:54
attr experiment Stability
attr inifile omnetpp.ini
attr iterationvars $0=1e-7
attr iterationvars2 "$0=1e-7, $repetition=0"
attr measurement $0=1e-7
attr network Network
attr processid 1898
attr repetition 0
attr replication #0
attr resultdir results
attr runnumber 130
attr seedset 130

vector 12706  Network.churner  inGoingSizeSig:vector  ETV
vector 12637  Network.dyn_peer[9]  lookupHopsSig:vector  ETV
vector 12638  Network.dyn_peer[9]  lookupStabilitySig:vector  ETV
vector 12639  Network.dyn_peer[9]  lookupTimeSig:vector  ETV
vector 12640  Network.dyn_peer[10]  lookupHopsSig:vector  ETV
vector 12641  Network.dyn_peer[10]  lookupStabilitySig:vector  ETV
vector 12642  Network.dyn_peer[10]  lookupTimeSig:vector  ETV
vector 12658  Network.dyn_peer[16]  lookupHopsSig:vector  ETV
vector 12659  Network.dyn_peer[16]  lookupStabilitySig:vector  ETV
vector 12660  Network.dyn_peer[16]  lookupTimeSig:vector  ETV
vector 12661  Network.dyn_peer[17]  lookupHopsSig:vector  ETV
vector 12662  Network.dyn_peer[17]  lookupStabilitySig:vector  ETV
vector 12663  Network.dyn_peer[17]  lookupTimeSig:vector  ETV
vector 12616  Network.dyn_peer[2]  lookupHopsSig:vector  ETV
vector 12617  Network.dyn_peer[2]  lookupStabilitySig:vector  ETV
vector 12618  Network.dyn_peer[2]  lookupTimeSig:vector  ETV
vector 12619  Network.dyn_peer[3]  lookupHopsSig:vector  ETV
vector 12620  Network.dyn_peer[3]  lookupStabilitySig:vector  ETV
vector 12621  Network.dyn_peer[3]  lookupTimeSig:vector  ETV
vector 12625  Network.dyn_peer[5]  lookupHopsSig:vector  ETV
vector 12626  Network.dyn_peer[5]  lookupStabilitySig:vector  ETV
vector 12627  Network.dyn_peer[5]  lookupTimeSig:vector  ETV
vector 12631  Network.dyn_peer[7]  lookupHopsSig:vector  ETV
vector 12632  Network.dyn_peer[7]  lookupStabilitySig:vector  ETV
vector 12633  Network.dyn_peer[7]  lookupTimeSig:vector  ETV
vector 12634  Network.dyn_peer[8]  lookupHopsSig:vector  ETV
vector 12635  Network.dyn_peer[8]  lookupStabilitySig:vector  ETV
vector 12636  Network.dyn_peer[8]  lookupTimeSig:vector  ETV
vector 12646  Network.dyn_peer[12]  lookupHopsSig:vector  ETV
vector 12647  Network.dyn_peer[12]  lookupStabilitySig:vector  ETV
vector 12648  Network.dyn_peer[12]  lookupTimeSig:vector  ETV
vector 12652  Network.dyn_peer[14]  lookupHopsSig:vector  ETV
vector 12653  Network.dyn_peer[14]  lookupStabilitySig:vector  ETV
vector 12654  Network.dyn_peer[14]  lookupTimeSig:vector  ETV
vector 12673  Network.dyn_peer[21]  lookupHopsSig:vector  ETV
vector 12674  Network.dyn_peer[21]  lookupStabilitySig:vector  ETV
vector 12675  Network.dyn_peer[21]  lookupTimeSig:vector  ETV
vector 12682  Network.dyn_peer[24]  lookupHopsSig:vector  ETV
vector 12683  Network.dyn_peer[24]  lookupStabilitySig:vector  ETV
vector 12684  Network.dyn_peer[24]  lookupTimeSig:vector  ETV
vector 12694  Network.dyn_peer[28]  lookupHopsSig:vector  ETV
vector 12695  Network.dyn_peer[28]  lookupStabilitySig:vector  ETV
vector 12696  Network.dyn_peer[28]  lookupTimeSig:vector  ETV
vector 12613  Network.dyn_peer[1]  lookupHopsSig:vector  ETV
vector 12614  Network.dyn_peer[1]  lookupStabilitySig:vector  ETV
vector 12615  Network.dyn_peer[1]  lookupTimeSig:vector  ETV
vector 12643  Network.dyn_peer[11]  lookupHopsSig:vector  ETV
vector 12644  Network.dyn_peer[11]  lookupStabilitySig:vector  ETV
vector 12645  Network.dyn_peer[11]  lookupTimeSig:vector  ETV
vector 12649  Network.dyn_peer[13]  lookupHopsSig:vector  ETV
vector 12650  Network.dyn_peer[13]  lookupStabilitySig:vector  ETV
vector 12651  Network.dyn_peer[13]  lookupTimeSig:vector  ETV
vector 12664  Network.dyn_peer[18]  lookupHopsSig:vector  ETV
vector 12665  Network.dyn_peer[18]  lookupStabilitySig:vector  ETV
vector 12666  Network.dyn_peer[18]  lookupTimeSig:vector  ETV
vector 12676  Network.dyn_peer[22]  lookupHopsSig:vector  ETV
vector 12677  Network.dyn_peer[22]  lookupStabilitySig:vector  ETV
vector 12678  Network.dyn_peer[22]  lookupTimeSig:vector  ETV
vector 12688  Network.dyn_peer[26]  lookupHopsSig:vector  ETV
vector 12689  Network.dyn_peer[26]  lookupStabilitySig:vector  ETV
vector 12690  Network.dyn_peer[26]  lookupTimeSig:vector  ETV
vector 12697  Network.dyn_peer[29]  lookupHopsSig:vector  ETV
vector 12698  Network.dyn_peer[29]  lookupStabilitySig:vector  ETV
vector 12699  Network.dyn_peer[29]  lookupTimeSig:vector  ETV
vector 12700  Network.dyn_peer[30]  lookupHopsSig:vector  ETV
vector 12701  Network.dyn_peer[30]  lookupStabilitySig:vector  ETV
vector 12702  Network.dyn_peer[30]  lookupTimeSig:vector  ETV
vector 12622  Network.dyn_peer[4]  lookupHopsSig:vector  ETV
vector 12623  Network.dyn_peer[4]  lookupStabilitySig:vector  ETV
vector 12624  Network.dyn_peer[4]  lookupTimeSig:vector  ETV
vector 12655  Network.dyn_peer[15]  lookupHopsSig:vector  ETV
vector 12656  Network.dyn_peer[15]  lookupStabilitySig:vector  ETV
vector 12657  Network.dyn_peer[15]  lookupTimeSig:vector  ETV
vector 12670  Network.dyn_peer[20]  lookupHopsSig:vector  ETV
vector 12671  Network.dyn_peer[20]  lookupStabilitySig:vector  ETV
vector 12672  Network.dyn_peer[20]  lookupTimeSig:vector  ETV
vector 12679  Network.dyn_peer[23]  lookupHopsSig:vector  ETV
vector 12680  Network.dyn_peer[23]  lookupStabilitySig:vector  ETV
vector 12681  Network.dyn_peer[23]  lookupTimeSig:vector  ETV
vector 12691  Network.dyn_peer[27]  lookupHopsSig:vector  ETV
vector 12692  Network.dyn_peer[27]  lookupStabilitySig:vector  ETV
vector 12693  Network.dyn_peer[27]  lookupTimeSig:vector  ETV
vector 12703  Network.dyn_peer[31]  lookupHopsSig:vector  ETV
vector 12704  Network.dyn_peer[31]  lookupStabilitySig:vector  ETV
vector 12705  Network.dyn_peer[31]  lookupTimeSig:vector  ETV
vector 12628  Network.dyn_peer[6]  lookupHopsSig:vector  ETV
vector 12629  Network.dyn_peer[6]  lookupStabilitySig:vector  ETV
vector 12630  Network.dyn_peer[6]  lookupTimeSig:vector  ETV
vector 12667  Network.dyn_peer[19]  lookupHopsSig:vector  ETV
vector 12668  Network.dyn_peer[19]  lookupStabilitySig:vector  ETV
vector 12669  Network.dyn_peer[19]  lookupTimeSig:vector  ETV
vector 12610  Network.dyn_peer[0]  lookupHopsSig:vector  ETV
vector 12611  Network.dyn_peer[0]  lookupStabilitySig:vector  ETV
vector 12612  Network.dyn_peer[0]  lookupTimeSig:vector  ETV
vector 12685  Network.dyn_peer[25]  lookupHopsSig:vector  ETV
vector 12686  Network.dyn_peer[25]  lookupStabilitySig:vector  ETV
vector 12687  Network.dyn_peer[25]  lookupTimeSig:vector  ETV
12610	481	20.6000000001	6
12610	1236	21.6000000001	10
12610	1542	21.810486070235	1
12610	1801	22.016972603335	1
12610	1935	22.119507140591	1
12610	2866	22.919507140591	7
12610	3334	23.32400979601	3
12610	3647	23.62410979611	3
12610	4096	24.02410979611	3
12610	5042	24.953302469193	8
12610	5506	25.354238724126	3
12610	5856	25.66353171898	3
12610	5962	25.74998511667	4
12610	6101	25.930097859403	2
12610	6632	26.43275522437	5
12610	7062	26.83275522437	3
12610	7357	27.058877367634	1
12610	7533	27.260295354612	1
12610	7638	27.365895924446	1
12610	8130	27.865895924446	4
12610	8446	28.270912094489	3
12610	8674	28.47256475656	2
12610	9427	29.166372019669	3
12610	10224	29.866372019669	6
12610	10491	30.066472019769	2
12610	10733	30.266472019769	1
12610	10894	30.369624691073	0
12610	10901	30.371797698434	0
12610	11167	30.577729571357	1
12610	11285	30.677829571457	1
12610	11763	31.177829571457	4
12610	12146	31.485106576066	3
12610	12404	31.685106576066	1
12610	12834	31.994160931186	2
12610	13578	32.599694476084	6
12610	14741	33.599694476084	10
12610	15108	33.903770560769	3
12610	15619	34.303886459784	3
12610	15907	34.603986459884	3
12610	16207	34.903986459884	3
12610	17206	35.811331276951	8
12610	17632	36.119567791348	2
12610	18382	36.724370224272	5
12610	18386	36.724735654689	5
12610	18525	36.825970670473	4
12610	18906	37.128848094005	3
12610	19446	37.553635984278	2
12610	20514	38.325032402446	5
12610	21015	38.73357785827	4
12610	21319	39.03357785827	2
12610	22669	40.243423131008	11
12610	23362	40.841663186244	4
12610	23503	40.971321883066	1
12610	23723	41.150365888266	9
12610	23735	41.153237609221	2
12610	24076	41.450985593997	2
12610	24361	41.652293200701	1
12610	24427	41.676381643616	7
12610	24446	41.682060195755	0
12610	25349	42.482060195755	7
12610	25684	42.788103863504	2
12610	26242	43.191701309201	6
12610	26350	43.289808852751	6
12610	27133	43.894775469027	6
12610	28353	44.805409281689	6
12610	28767	45.1166490294	2
12610	29551	45.705509281789	4
12610	30190	46.305509281789	5
12610	30906	46.915087681726	6
12610	32142	47.845275045701	6
12610	32490	48.145275045701	2
12610	33557	49.051297867805	10
12610	34158	49.551297867805	4
12610	35245	50.357316409185	8
12610	35754	50.759641800372	3
12610	35758	50.761487577611	3
12610	36002	50.963555470304	1
12610	36006	50.963919933667	1
12610	36260	51.1655854176	1
12610	36519	51.3656854177	2
12610	36865	51.6656854177	2
12610	37235	51.985638012797	2
12610	37490	52.194384902286	1
12610	37648	52.35095409574	1
12610	38244	52.859994438933	5
12610	38704	53.269903211022	3
12610	38992	53.479359441666	1
12610	40315	54.480054614848	8
12610	40458	54.587010488941	13
12610	40967	55.086633721582	5
12610	41492	55.587064213171	5
12610	42652	56.621468528205	6
12610	43154	57.021468528205	3
12610	43761	57.528405122734	4
12610	43867	57.665411382372	3
12610	43940	57.72398299065	3
12610	44324	58.02408299075	3
12610	45361	58.72408299075	6
12610	46230	59.427166551752	6
12610	46355	59.540493800607	1
12610	46956	60.003173389136	4
12610	47882	60.609457582616	7
12610	48836	61.309457582616	8
12610	49728	62.113561092597	9
12610	50424	62.713561092597	5
12610	50577	62.830020522319	5
12610	50821	63.123184386624	4
12610	51269	63.523284386724	4
12610	51736	63.923284386724	3
12610	52141	64.223835529202	2
12610	52588	64.549979500698	3
12610	52756	64.726544974682	4
12610	52926	64.845362691331	5
12610	53056	64.951543057333	1
12610	54420	65.899600904734	6
12610	54753	66.109578758362	1
12610	55840	66.918975699106	8
12610	56841	67.742483816099	7
12610	56935	67.818975699106	8
12610	57087	67.951800614007	1
12610	57152	68.031250870606	1
12610	57311	68.157060403262	1
12610	57582	68.357160403362	2
12610	58935	69.5887436926	9
12610	59425	69.993662258822	3
12610	59600	70.200020698234	1
12610	59726	70.300120698334	1
12610	59990	70.504702960058	1
12610	60414	70.862539784343	3
12610	60630	71.015727438735	5
12610	62064	72.21848377179	13
12610	63250	73.31848377179	10
12610	64120	74.024385495401	8
12610	64572	74.424485495501	4
12610	65654	75.324485495501	8
12610	66266	75.830428114692	4
12610	66412	75.939095977228	3
12610	66794	76.331144363945	4
12610	67872	77.235474616779	11
12610	68495	77.735474616779	4
12610	69286	78.446836673026	6
12610	69477	78.570932817137	6
12610	69996	78.978508912237	3
12610	70167	79.152673983627	7
12610	70174	79.155400292014	7
12610	70480	79.382938334378	3
12610	71017	79.786776107889	3
12610	71319	80.07893646201	6
12610	71580	80.288762243733	1
12610	71658	80.350150904934	1
12610	72709	81.25560042631	9
12610	73445	82.033614026661	2
12610	73461	82.05560042631	7
12610	74033	82.56479652766	5
12610	74404	82.842586368158	8
12610	74552	82.970047820867	3
12610	75472	83.678858201824	8
12610	75841	83.978858201824	3
12610	76138	84.181342059517	1
12610	76261	84.297340391613	1
12610	76276	84.316081325101	1
12610	76758	84.688815891338	4
12610	77317	85.194337845295	5
12610	78325	85.894337845295	7
12610	78604	86.094738575268	1
12610	79499	86.842961158367	4
12610	79679	87.005251937378	9
12610	80046	87.312884500359	3
12610	80469	87.619560193809	2
12610	80746	87.828184628978	1
12610	81015	88.030966433407	1
12610	81629	88.531414322766	5
12610	81850	88.745558454918	2
12610	82369	89.146769018084	4
12610	83724	90.146769018084	11
12610	83958	90.351197418192	1
12610	84561	90.953037044907	6
12610	84769	91.157356612892	2
12610	85141	91.557356612892	4
12610	85481	91.857617246583	2
12610	85909	92.267067391527	3
12610	86669	92.867282551193	6
12610	87369	93.467282551193	5
12610	87587	93.673984904921	1
12610	87815	93.876633691443	1
12610	87945	93.986106859796	1
12610	89324	95.043929109851	8
12610	89346	95.086106859796	11
12610	89469	95.189751657553	1
12610	89848	95.499486424708	2
12610	89951	95.551085022288	6
12610	90298	95.833447530723	7
12610	90341	95.852223097573	3
12610	90540	96.005055787839	5
12610	90707	96.114400502991	1
12610	91255	96.514400502991	3
12610	91756	96.92481406857	3
12610	92556	97.62491406867	7
12610	92800	97.828199020332	1
12610	93045	98.033171938475	3
12610	93050	98.033557355722	3
12610	93071	98.033657355822	0
12610	93518	98.433657355822	3
12610	94127	98.943788740868	4
12610	94337	99.153158656407	1
12610	94485	99.261630214622	1
12610	94490	99.266854101734	1
12610	94845	99.563586586165	3
12610	95577	100.16802665767	6
12610	96118	100.66802665767	4
12610	97203	101.579365726895	9
12610	97334	101.684523634682	1
12610	98278	102.489405200555	8
12610	98924	103.06005567861	1
12610	99535	103.56015567871	5
12610	100153	104.06015567871	4
12610	101074	104.865766146475	8
12610	101391	105.165766146475	2
12610	102189	105.87110008861	6
12610	102756	106.283793670118	3
12610	103293	106.683793670118	3
12610	104003	107.189465978438	3
12610	104468	107.500200376159	2
12610	104587	107.591186803997	2
12610	104987	107.899221184929	2
12610	105572	108.302634469787	4
12610	107100	109.522329041064	6
12610	108498	110.722329041064	11
12610	109037	111.225423250955	5
12610	109157	111.334723054577	1
12610	109448	111.634723054577	2
12610	110410	112.324893246228	2
12610	111693	113.524993246328	12
12610	112169	114.024993246328	4
12610	112360	114.228093119881	1
12610	112364	114.229934809028	1
12610	112523	114.395062808612	7
12610	113709	115.395162808712	10
12610	114436	115.896826835967	4
12610	114501	115.929800365445	2
12610	115179	116.430586138007	6
12610	115670	116.838939136271	3
12610	115967	117.101591667891	2
12610	116040	117.146643786468	2
12610	116968	117.862221338941	7
12610	117548	118.262321339041	4
12610	118442	118.962321339041	6
12610	118765	119.265024005205	3
12610	119070	119.573202266283	2
12610	119253	119.761609730983	6
12610	119562	120.066372424356	3
12610	119903	120.366372424356	3
12610	120399	120.774287656635	3
12610	120911	121.097879045574	5
12610	121670	121.705531198737	6
12610	122201	122.105531198737	3
12610	123444	123.176037800976	6
12610	123605	123.312569917811	12
12610	124297	123.883931015676	7
12610	124353	123.921964377055	5
12610	124561	124.124577052939	1
12610	124705	124.2201035362	5
12610	124966	124.425626322131	1
12610	125324	124.73409947083	2
12610	125340	124.736638730888	0
12610	127118	126.436638730888	16
12610	127880	127.044476494717	6
12610	128233	127.352544592006	2
12610	128269	127.376772963893	9
12610	128354	127.464442162721	2
12610	129795	128.672543836722	14
12610	130581	129.372543836722	7
12610	131865	130.479414955935	11
12610	132255	130.782221613339	9
12610	132272	130.787975586788	2
12610	132402	130.902004835747	2
12610	133000	131.409586761148	5
12610	133476	131.809586761148	3
12610	133796	132.110823791137	2
12610	134452	132.617311670184	5
12610	134490	132.659513685534	5
12610	134507	132.664069876156	0
12610	135062	133.164069876156	5
12610	135401	133.464169876256	3
12610	136088	134.064169876256	5
12610	136319	134.273827308471	1
12610	136442	134.390084706236	1
12610	136630	134.575946843094	3
12610	136758	134.696404345799	4
12610	136874	134.842321230128	3
12611	481	20.6000000001	0.25
12611	1236	21.6000000001	-0.25
12611	1542	21.810486070235	0.875
12611	1801	22.016972603335	0.875
12611	1935	22.119507140591	0.875
12611	2866	22.919507140591	0.125
12611	3334	23.32400979601	0.625
12611	3647	23.62410979611	0.625
12611	4096	24.02410979611	0.625
12611	5042	24.953302469193	0
12611	5506	25.354238724126	0.625
12611	5856	25.66353171898	0.625
12611	5962	25.74998511667	0.5
12611	6101	25.930097859403	0.75
12611	6632	26.43275522437	0.375
12611	7062	26.83275522437	0.625
12611	7357	27.058877367634	0.875
12611	7533	27.260295354612	0.875
12611	7638	27.365895924446	0.875
12611	8130	27.865895924446	0.5
12611	8446	28.270912094489	0.625
12611	8674	28.47256475656	0.75
12611	9427	29.166372019669	0.625
12611	10224	29.866372019669	0.25
12611	10491	30.066472019769	0.75
12611	10733	30.266472019769	0.875
12611	10894	30.369624691073	1
12611	10901	30.371797698434	1
12611	11167	30.577729571357	0.875
12611	11285	30.677829571457	0.875
12611	11763	31.177829571457	0.5
12611	12146	31.485106576066	0.625
12611	12404	31.685106576066	0.875
12611	12834	31.994160931186	0.75
12611	13578	32.599694476084	0.25
12611	14741	33.599694476084	-0.25
12611	15108	33.903770560769	0.625
12611	15619	34.303886459784	0.625
12611	15907	34.603986459884	0.625
12611	16207	34.903986459884	0.625
12611	17206	35.811331276951	0
12611	17632	36.119567791348	0.75
12611	18382	36.724370224272	0.375
12611	18386	36.724735654689	0.375
12611	18525	36.825970670473	0.5
12611	18906	37.128848094005	0.625
12611	19446	37.553635984278	0.75
12611	20514	38.325032402446	0.375
12611	21015	38.73357785827	0.5
12611	21319	39.03357785827	0.75
12611	22669	40.243423131008	-0.375
12611	23362	40.841663186244	0.5
12611	23503	40.971321883066	0.875
12611	23723	41.150365888266	-0.125
12611	23735	41.153237609221	0.75
12611	24076	41.450985593997	0.75
12611	24361	41.652293200701	0.875
12611	24427	41.676381643616	0.125
12611	24446	41.682060195755	1
12611	25349	42.482060195755	0.125
12611	25684	42.788103863504	0.75
12611	26242	43.191701309201	0.25
12611	26350	43.289808852751	0.25
12611	27133	43.894775469027	0.25
12611	28353	44.805409281689	0.25
12611	28767	45.1166490294	0.75
12611	29551	45.705509281789	0.5
12611	30190	46.305509281789	0.375
12611	30906	46.915087681726	0.25
12611	32142	47.845275045701	0.25
12611	32490	48.145275045701	0.75
12611	33557	49.051297867805	-0.25
12611	34158	49.551297867805	0.5
12611	35245	50.357316409185	0
12611	35754	50.759641800372	0.625
12611	35758	50.761487577611	0.625
12611	36002	50.963555470304	0.875
12611	36006	50.963919933667	0.875
12611	36260	51.1655854176	0.875
12611	36519	51.3656854177	0.75
12611	36865	51.6656854177	0.75
12611	37235	51.985638012797	0.75
12611	37490	52.194384902286	0.875
12611	37648	52.35095409574	0.875
12611	38244	52.859994438933	0.375
12611	38704	53.269903211022	0.625
12611	38992	53.479359441666	0.875
12611	40315	54.480054614848	0
12611	40458	54.587010488941	-0.625
12611	40967	55.086633721582	0.375
12611	41492	55.587064213171	0.375
12611	42652	56.621468528205	0.25
12611	43154	57.021468528205	0.625
12611	43761	57.528405122734	0.5
12611	43867	57.665411382372	0.625
12611	43940	57.72398299065	0.625
12611	44324	58.02408299075	0.625
12611	45361	58.72408299075	0.25
12611	46230	59.427166551752	0.25
12611	46355	59.540493800607	0.875
12611	46956	60.003173389136	0.5
12611	47882	60.609457582616	0.125
12611	48836	61.309457582616	0
12611	49728	62.113561092597	-0.125
12611	50424	62.713561092597	0.375
12611	50577	62.830020522319	0.375
12611	50821	63.123184386624	0.5
12611	51269	63.523284386724	0.5
12611	51736	63.923284386724	0.625
12611	52141	64.223835529202	0.75
12611	52588	64.549979500698	0.625
12611	52756	64.726544974682	0.5
12611	52926	64.845362691331	0.375
12611	53056	64.951543057333	0.875
12611	54420	65.899600904734	0.25
12611	54753	66.109578758362	0.875
12611	55840	66.918975699106	0
12611	56841	67.742483816099	0.125
12611	56935	67.818975699106	0
12611	57087	67.951800614007	0.875
12611	57152	68.031250870606	0.875
12611	57311	68.157060403262	0.875
12611	57582	68.357160403362	0.75
12611	58935	69.5887436926	-0.125
12611	59425	69.993662258822	0.625
12611	59600	70.200020698234	0.875
12611	59726	70.300120698334	0.875
12611	59990	70.504702960058	0.875
12611	60414	70.862539784343	0.625
12611	60630	71.015727438735	0.375
12611	62064	72.21848377179	-0.625
12611	63250	73.31848377179	-0.25
12611	64120	74.024385495401	0
12611	64572	74.424485495501	0.5
12611	65654	75.324485495501	0
12611	66266	75.830428114692	0.5
12611	66412	75.939095977228	0.625
12611	66794	76.331144363945	0.5
12611	67872	77.235474616779	-0.375
12611	68495	77.735474616779	0.5
12611	69286	78.446836673026	0.25
12611	69477	78.570932817137	0.25
12611	69996	78.978508912237	0.625
12611	70167	79.152673983627	0.125
12611	70174	79.155400292014	0.125
12611	70480	79.382938334378	0.625
12611	71017	79.786776107889	0.625
12611	71319	80.07893646201	0.25
12611	71580	80.288762243733	0.875
12611	71658	80.350150904934	0.875
12611	72709	81.25560042631	-0.125
12611	73445	82.033614026661	0.75
12611	73461	82.05560042631	0.125
12611	74033	82.56479652766	0.375
12611	74404	82.842586368158	0
12611	74552	82.970047820867	0.625
12611	75472	83.678858201824	0
12611	75841	83.978858201824	0.625
12611	76138	84.181342059517	0.875
12611	76261	84.297340391613	0.875
12611	76276	84.316081325101	0.875
12611	76758	84.688815891338	0.5
12611	77317	85.194337845295	0.375
12611	78325	85.894337845295	0.125
12611	78604	86.094738575268	0.875
12611	79499	86.842961158367	0.5
12611	79679	87.005251937378	-0.125
12611	80046	87.312884500359	0.625
12611	80469	87.619560193809	0.75
12611	80746	87.828184628978	0.875
12611	81015	88.030966433407	0.875
12611	81629	88.531414322766	0.375
12611	81850	88.745558454918	0.75
12611	82369	89.146769018084	0.5
12611	83724	90.146769018084	-0.375
12611	83958	90.351197418192	0.875
12611	84561	90.953037044907	0.25
12611	84769	91.157356612892	0.75
12611	85141	91.557356612892	0.5
12611	85481	91.857617246583	0.75
12611	85909	92.267067391527	0.625
12611	86669	92.867282551193	0.25
12611	87369	93.467282551193	0.375
12611	87587	93.673984904921	0.875
12611	87815	93.876633691443	0.875
12611	87945	93.986106859796	0.875
12611	89324	95.043929109851	0
12611	89346	95.086106859796	-0.375
12611	89469	95.189751657553	0.875
12611	89848	95.499486424708	0.75
12611	89951	95.551085022288	0.25
12611	90298	95.833447530723	0.125
12611	90341	95.852223097573	0.625
12611	90540	96.005055787839	0.375
12611	90707	96.114400502991	0.875
12611	91255	96.514400502991	0.625
12611	91756	96.92481406857	0.625
12611	92556	97.62491406867	0.125
12611	92800	97.828199020332	0.875
12611	93045	98.033171938475	0.625
12611	93050	98.033557355722	0.625
12611	93071	98.033657355822	1
12611	93518	98.433657355822	0.625
12611	94127	98.943788740868	0.5
12611	94337	99.153158656407	0.875
12611	94485	99.261630214622	0.875
12611	94490	99.266854101734	0.875
12611	94845	99.563586586165	0.625
12611	95577	100.16802665767	0.25
12611	96118	100.66802665767	0.5
12611	97203	101.579365726895	-0.125
12611	97334	101.684523634682	0.875
12611	98278	102.489405200555	0
12611	98924	103.06005567861	0.875
12611	99535	103.56015567871	0.375
12611	100153	104.06015567871	0.5
12611	101074	104.865766146475	0
12611	101391	105.165766146475	0.75
12611	102189	105.87110008861	0.25
12611	102756	106.283793670118	0.625
12611	103293	106.683793670118	0.625
12611	104003	107.189465978438	0.625
12611	104468	107.500200376159	0.75
12611	104587	107.591186803997	0.75
12611	104987	107.899221184929	0.75
12611	105572	108.302634469787	0.5
12611	107100	109.522329041064	0.25
12611	108498	110.722329041064	-0.375
12611	109037	111.225423250955	0.375
12611	109157	111.334723054577	0.875
12611	109448	111.634723054577	0.75
12611	110410	112.324893246228	0.75
12611	111693	113.524993246328	-0.5
12611	112169	114.024993246328	0.5
12611	112360	114.228093119881	0.875
12611	112364	114.229934809028	0.875
12611	112523	114.395062808612	0.125
12611	113709	115.395162808712	-0.25
12611	114436	115.896826835967	0.5
12611	114501	115.929800365445	0.75
12611	115179	116.430586138007	0.25
12611	115670	116.838939136271	0.625
12611	115967	117.101591667891	0.75
12611	116040	117.146643786468	0.75
12611	116968	117.862221338941	0.125
12611	117548	118.262321339041	0.5
12611	118442	118.962321339041	0.25
12611	118765	119.265024005205	0.625
12611	119070	119.573202266283	0.75
12611	119253	119.761609730983	0.25
12611	119562	120.066372424356	0.625
12611	119903	120.366372424356	0.625
12611	120399	120.774287656635	0.625
12611	120911	121.097879045574	0.375
12611	121670	121.705531198737	0.25
12611	122201	122.105531198737	0.625
12611	123444	123.176037800976	0.25
12611	123605	123.312569917811	-0.5
12611	124297	123.883931015676	0.125
12611	124353	123.921964377055	0.375
12611	124561	124.124577052939	0.875
12611	124705	124.2201035362	0.375
12611	124966	124.425626322131	0.875
12611	125324	124.73409947083	0.75
12611	125340	124.736638730888	1
12611	127118	126.436638730888	-1
12611	127880	127.044476494717	0.25
12611	128233	127.352544592006	0.75
12611	128269	127.376772963893	0
12611	128354	127.464442162721	0.75
12611	129795	128.672543836722	-0.75
12611	130581	129.372543836722	0.125
12611	131865	130.479414955935	-0.375
12611	132255	130.782221613339	-0.125
12611	132272	130.787975586788	0.75
12611	132402	130.902004835747	0.75
12611	133000	131.409586761148	0.375
12611	133476	131.809586761148	0.625
12611	133796	132.110823791137	0.75
12611	134452	132.617311670184	0.375
12611	134490	132.659513685534	0.375
12611	134507	132.664069876156	1
12611	135062	133.164069876156	0.375
12611	135401	133.464169876256	0.625
12611	136088	134.064169876256	0.375
12611	136319	134.273827308471	0.875
12611	136442	134.390084706236	0.875
12611	136630	134.575946843094	0.625
12611	136758	134.696404345799	0.5
12611	136874	134.842321230128	0.625
12612	481	20.6000000001	0.6
12612	1236	21.6000000001	1
12612	1542	21.810486070235	0.2
12612	1801	22.016972603335	0.2
12612	1935	22.119507140591	0.1
12612	2866	22.919507140591	0.8
12612	3334	23.32400979601	0.4
12612	3647	23.62410979611	0.3
12612	4096	24.02410979611	0.4
12612	5042	24.953302469193	0.9
12612	5506	25.354238724126	0.4
12612	5856	25.66353171898	0.3
12612	5962	25.74998511667	0.4
12612	6101	25.930097859403	0.3
12612	6632	26.43275522437	0.5
12612	7062	26.83275522437	0.4
12612	7357	27.058877367634	0.2
12612	7533	27.260295354612	0.2
12612	7638	27.365895924446	0.1
12612	8130	27.865895924446	0.5
12612	8446	28.270912094489	0.4
12612	8674	28.47256475656	0.2
12612	9427	29.166372019669	0.3
12612	10224	29.866372019669	0.7
12612	10491	30.066472019769	0.2
12612	10733	30.266472019769	0.2
12612	10894	30.369624691073	0.1
12612	10901	30.371797698434	0.1
12612	11167	30.577729571357	0.2
12612	11285	30.677829571457	0.1
12612	11763	31.177829571457	0.5
12612	12146	31.485106576066	0.3
12612	12404	31.685106576066	0.2
12612	12834	31.994160931186	0.3
12612	13578	32.599694476084	0.6
12612	14741	33.599694476084	1
12612	15108	33.903770560769	0.3
12612	15619	34.303886459784	0.4
12612	15907	34.603986459884	0.3
12612	16207	34.903986459884	0.3
12612	17206	35.811331276951	0.9
12612	17632	36.119567791348	0.3
12612	18382	36.724370224272	0.6
12612	18386	36.724735654689	0.6
12612	18525	36.825970670473	0.5
12612	18906	37.128848094005	0.3
12612	19446	37.553635984278	0.2
12612	20514	38.325032402446	0.5
12612	21015	38.73357785827	0.4
12612	21319	39.03357785827	0.3
12612	22669	40.243423131008	1.2
12612	23362	40.841663186244	0.5
12612	23503	40.971321883066	0.2
12612	23723	41.150365888266	0.9
12612	23735	41.153237609221	0.3
12612	24076	41.450985593997	0.3
12612	24361	41.652293200701	0.2
12612	24427	41.676381643616	0.7
12612	24446	41.682060195755	0
12612	25349	42.482060195755	0.8
12612	25684	42.788103863504	0.3
12612	26242	43.191701309201	0.6
12612	26350	43.289808852751	0.5
12612	27133	43.894775469027	0.6
12612	28353	44.805409281689	0.6
12612	28767	45.1166490294	0.3
12612	29551	45.705509281789	0.4
12612	30190	46.305509281789	0.6
12612	30906	46.915087681726	0.6
12612	32142	47.845275045701	0.5
12612	32490	48.145275045701	0.3
12612	33557	49.051297867805	0.9
12612	34158	49.551297867805	0.5
12612	35245	50.357316409185	0.8
12612	35754	50.759641800372	0.4
12612	35758	50.761487577611	0.4
12612	36002	50.963555470304	0.2
12612	36006	50.963919933667	0.2
12612	36260	51.1655854176	0.2
12612	36519	51.3656854177	0.2
12612	36865	51.6656854177	0.3
12612	37235	51.985638012797	0.3
12612	37490	52.194384902286	0.2
12612	37648	52.35095409574	0.2
12612	38244	52.859994438933	0.5
12612	38704	53.269903211022	0.4
12612	38992	53.479359441666	0.2
12612	40315	54.480054614848	0.9
12612	40458	54.587010488941	1.1
12612	40967	55.086633721582	0.6
12612	41492	55.587064213171	0.5
12612	42652	56.621468528205	0.6
12612	43154	57.021468528205	0.4
12612	43761	57.528405122734	0.5
12612	43867	57.665411382372	0.4
12612	43940	57.72398299065	0.4
12612	44324	58.02408299075	0.3
12612	45361	58.72408299075	0.7
12612	46230	59.427166551752	0.7
12612	46355	59.540493800607	0.1
12612	46956	60.003173389136	0.5
12612	47882	60.609457582616	0.6
12612	48836	61.309457582616	0.7
12612	49728	62.113561092597	0.8
12612	50424	62.713561092597	0.6
12612	50577	62.830020522319	0.6
12612	50821	63.123184386624	0.4
12612	51269	63.523284386724	0.4
12612	51736	63.923284386724	0.4
12612	52141	64.223835529202	0.3
12612	52588	64.549979500698	0.4
12612	52756	64.726544974682	0.5
12612	52926	64.845362691331	0.6
12612	53056	64.951543057333	0.1
12612	54420	65.899600904734	0.7
12612	54753	66.109578758362	0.2
12612	55840	66.918975699106	0.8
12612	56841	67.742483816099	0.6
12612	56935	67.818975699106	0.9
12612	57087	67.951800614007	0.2
12612	57152	68.031250870606	0.2
12612	57311	68.157060403262	0.2
12612	57582	68.357160403362	0.2
12612	58935	69.5887436926	0.8
12612	59425	69.993662258822	0.4
12612	59600	70.200020698234	0.2
12612	59726	70.300120698334	0.1
12612	59990	70.504702960058	0.2
12612	60414	70.862539784343	0.4
12612	60630	71.015727438735	0.5
12612	62064	72.21848377179	1.2
12612	63250	73.31848377179	1.1
12612	64120	74.024385495401	0.7
12612	64572	74.424485495501	0.4
12612	65654	75.324485495501	0.9
12612	66266	75.830428114692	0.5
12612	66412	75.939095977228	0.4
12612	66794	76.331144363945	0.5
12612	67872	77.235474616779	0.9
12612	68495	77.735474616779	0.5
12612	69286	78.446836673026	0.7
12612	69477	78.570932817137	0.7
12612	69996	78.978508912237	0.4
12612	70167	79.152673983627	0.7
12612	70174	79.155400292014	0.7
12612	70480	79.382938334378	0.4
12612	71017	79.786776107889	0.4
12612	71319	80.07893646201	0.7
12612	71580	80.288762243733	0.2
12612	71658	80.350150904934	0.2
12612	72709	81.25560042631	0.9
12612	73445	82.033614026661	0.3
12612	73461	82.05560042631	0.8
12612	74033	82.56479652766	0.5
12612	74404	82.842586368158	0.8