version 2
run Stability-41-20130526-18:49:50-1898
attr configname Stability
attr datetime 20130526-18:49:50
attr experiment Stability
attr inifile omnetpp.ini
attr iterationvars $0=1e2
attr iterationvars2 "$0=1e2, $repetition=1"
attr measurement $0=1e2
attr network Network
attr processid 1898
attr repetition 1
attr replication #1
attr resultdir results
attr runnumber 41
attr seedset 41

vector 4073  Network.churner  inGoingSizeSig:vector  ETV
vector 3980  Network.dyn_peer[1]  lookupHopsSig:vector  ETV
vector 3981  Network.dyn_peer[1]  lookupStabilitySig:vector  ETV
vector 3982  Network.dyn_peer[1]  lookupTimeSig:vector  ETV
vector 3977  Network.dyn_peer[0]  lookupHopsSig:vector  ETV
vector 3978  Network.dyn_peer[0]  lookupStabilitySig:vector  ETV
vector 3979  Network.dyn_peer[0]  lookupTimeSig:vector  ETV
vector 3983  Network.dyn_peer[2]  lookupHopsSig:vector  ETV
vector 3984  Network.dyn_peer[2]  lookupStabilitySig:vector  ETV
vector 3985  Network.dyn_peer[2]  lookupTimeSig:vector  ETV
vector 3986  Network.dyn_peer[3]  lookupHopsSig:vector  ETV
vector 3987  Network.dyn_peer[3]  lookupStabilitySig:vector  ETV
vector 3988  Network.dyn_peer[3]  lookupTimeSig:vector  ETV
vector 3989  Network.dyn_peer[4]  lookupHopsSig:vector  ETV
vector 3990  Network.dyn_peer[4]  lookupStabilitySig:vector  ETV
vector 3991  Network.dyn_peer[4]  lookupTimeSig:vector  ETV
vector 3992  Network.dyn_peer[5]  lookupHopsSig:vector  ETV
vector 3993  Network.dyn_peer[5]  lookupStabilitySig:vector  ETV
vector 3994  Network.dyn_peer[5]  lookupTimeSig:vector  ETV
vector 3995  Network.dyn_peer[6]  lookupHopsSig:vector  ETV
vector 3996  Network.dyn_peer[6]  lookupStabilitySig:vector  ETV
vector 3997  Network.dyn_peer[6]  lookupTimeSig:vector  ETV
vector 3998  Network.dyn_peer[7]  lookupHopsSig:vector  ETV
vector 3999  Network.dyn_peer[7]  lookupStabilitySig:vector  ETV
vector 4000  Network.dyn_peer[7]  lookupTimeSig:vector  ETV
vector 4001  Network.dyn_peer[8]  lookupHopsSig:vector  ETV
vector 4002  Network.dyn_peer[8]  lookupStabilitySig:vector  ETV
vector 4003  Network.dyn_peer[8]  lookupTimeSig:vector  ETV
vector 4004  Network.dyn_peer[9]  lookupHopsSig:vector  ETV
vector 4005  Network.dyn_peer[9]  lookupStabilitySig:vector  ETV
vector 4006  Network.dyn_peer[9]  lookupTimeSig:vector  ETV
vector 4007  Network.dyn_peer[10]  lookupHopsSig:vector  ETV
vector 4008  Network.dyn_peer[10]  lookupStabilitySig:vector  ETV
vector 4009  Network.dyn_peer[10]  lookupTimeSig:vector  ETV
vector 4010  Network.dyn_peer[11]  lookupHopsSig:vector  ETV
vector 4011  Network.dyn_peer[11]  lookupStabilitySig:vector  ETV
vector 4012  Network.dyn_peer[11]  lookupTimeSig:vector  ETV
vector 4013  Network.dyn_peer[12]  lookupHopsSig:vector  ETV
vector 4014  Network.dyn_peer[12]  lookupStabilitySig:vector  ETV
vector 4015  Network.dyn_peer[12]  lookupTimeSig:vector  ETV
vector 4016  Network.dyn_peer[13]  lookupHopsSig:vector  ETV
vector 4017  Network.dyn_peer[13]  lookupStabilitySig:vector  ETV
vector 4018  Network.dyn_peer[13]  lookupTimeSig:vector  ETV
vector 4022  Network.dyn_peer[15]  lookupHopsSig:vector  ETV
vector 4023  Network.dyn_peer[15]  lookupStabilitySig:vector  ETV
vector 4024  Network.dyn_peer[15]  lookupTimeSig:vector  ETV
vector 4025  Network.dyn_peer[16]  lookupHopsSig:vector  ETV
vector 4026  Network.dyn_peer[16]  lookupStabilitySig:vector  ETV
vector 4027  Network.dyn_peer[16]  lookupTimeSig:vector  ETV
vector 4019  Network.dyn_peer[14]  lookupHopsSig:vector  ETV
vector 4020  Network.dyn_peer[14]  lookupStabilitySig:vector  ETV
vector 4021  Network.dyn_peer[14]  lookupTimeSig:vector  ETV
vector 4028  Network.dyn_peer[17]  lookupHopsSig:vector  ETV
vector 4029  Network.dyn_peer[17]  lookupStabilitySig:vector  ETV
vector 4030  Network.dyn_peer[17]  lookupTimeSig:vector  ETV
vector 4034  Network.dyn_peer[19]  lookupHopsSig:vector  ETV
vector 4035  Network.dyn_peer[19]  lookupStabilitySig:vector  ETV
vector 4036  Network.dyn_peer[19]  lookupTimeSig:vector  ETV
vector 4037  Network.dyn_peer[20]  lookupHopsSig:vector  ETV
vector 4038  Network.dyn_peer[20]  lookupStabilitySig:vector  ETV
vector 4039  Network.dyn_peer[20]  lookupTimeSig:vector  ETV
vector 4031  Network.dyn_peer[18]  lookupHopsSig:vector  ETV
vector 4032  Network.dyn_peer[18]  lookupStabilitySig:vector  ETV
vector 4033  Network.dyn_peer[18]  lookupTimeSig:vector  ETV
vector 4040  Network.dyn_peer[21]  lookupHopsSig:vector  ETV
vector 4041  Network.dyn_peer[21]  lookupStabilitySig:vector  ETV
vector 4042  Network.dyn_peer[21]  lookupTimeSig:vector  ETV
vector 4043  Network.dyn_peer[22]  lookupHopsSig:vector  ETV
vector 4044  Network.dyn_peer[22]  lookupStabilitySig:vector  ETV
vector 4045  Network.dyn_peer[22]  lookupTimeSig:vector  ETV
vector 4049  Network.dyn_peer[24]  lookupHopsSig:vector  ETV
vector 4050  Network.dyn_peer[24]  lookupStabilitySig:vector  ETV
vector 4051  Network.dyn_peer[24]  lookupTimeSig:vector  ETV
vector 4046  Network.dyn_peer[23]  lookupHopsSig:vector  ETV
vector 4047  Network.dyn_peer[23]  lookupStabilitySig:vector  ETV
vector 4048  Network.dyn_peer[23]  lookupTimeSig:vector  ETV
vector 4052  Network.dyn_peer[25]  lookupHopsSig:vector  ETV
vector 4053  Network.dyn_peer[25]  lookupStabilitySig:vector  ETV
vector 4054  Network.dyn_peer[25]  lookupTimeSig:vector  ETV
vector 4055  Network.dyn_peer[26]  lookupHopsSig:vector  ETV
vector 4056  Network.dyn_peer[26]  lookupStabilitySig:vector  ETV
vector 4057  Network.dyn_peer[26]  lookupTimeSig:vector  ETV
vector 4058  Network.dyn_peer[27]  lookupHopsSig:vector  ETV
vector 4059  Network.dyn_peer[27]  lookupStabilitySig:vector  ETV
vector 4060  Network.dyn_peer[27]  lookupTimeSig:vector  ETV
vector 4061  Network.dyn_peer[28]  lookupHopsSig:vector  ETV
vector 4062  Network.dyn_peer[28]  lookupStabilitySig:vector  ETV
vector 4063  Network.dyn_peer[28]  lookupTimeSig:vector  ETV
vector 4067  Network.dyn_peer[30]  lookupHopsSig:vector  ETV
vector 4068  Network.dyn_peer[30]  lookupStabilitySig:vector  ETV
vector 4069  Network.dyn_peer[30]  lookupTimeSig:vector  ETV
vector 4070  Network.dyn_peer[31]  lookupHopsSig:vector  ETV
vector 4071  Network.dyn_peer[31]  lookupStabilitySig:vector  ETV
vector 4072  Network.dyn_peer[31]  lookupTimeSig:vector  ETV
vector 4064  Network.dyn_peer[29]  lookupHopsSig:vector  ETV
vector 4065  Network.dyn_peer[29]  lookupStabilitySig:vector  ETV
vector 4066  Network.dyn_peer[29]  lookupTimeSig:vector  ETV
3977	41	20.3	2
3977	68	20.6	2
3977	129	20.900831979294	2
3977	186	21.108725371441	1
3977	280	21.409722750681	2
3977	1332	23.8	3
3977	1515	24.2	3
3977	1647	24.419136347867	3
3977	1664	24.504527070352	2
3977	2586	26.6	0
3977	3027	27.3	8
3977	3140	27.501378468731	1
3977	4160	29.5	2
3977	4269	29.7	1
3977	4392	29.906774842927	1
3977	4425	29.963456645557	1
3977	4503	30.117270565793	1
3977	5487	32.1	1
3977	5593	32.3	1
3977	5754	32.605622152513	2
3977	5846	32.809699839208	1
3977	6768	35	2
3977	6976	35.41578149356	2
3977	7145	35.721925755893	2
3977	8253	38.1	4
3977	8675	39.1	11
3977	9778	41.3	3
3977	9967	41.7	3
3977	10195	42.107165991188	3
3977	11487	44.8	7
3977	11713	45.4	6
3977	12728	47.5	2
3977	12896	47.9	3
3977	13200	48.405749981251	5
3977	13318	48.613873872814	2
3977	13416	48.801855684306	10
3977	14466	51	2
3977	14715	51.5	4
3977	14903	51.808762072266	2
3977	14953	51.930337806119	1
3977	15033	52.109977681822	2
3977	15992	54.3	3
3977	16108	54.50500809137	1
3977	16391	55.009272988256	4
3977	16646	55.419186657966	3
3977	17548	57.4	1
3977	17745	57.9	4
3977	17850	58.109242851242	1
3977	17978	58.327463006421	1
3977	19127	60.8	7
3977	19301	61.2	3
3977	19490	61.602481118743	3
3977	19696	61.906352120486	2
3977	19779	62.008985317961	4
3977	19914	62.253863477536	1
3977	21019	64.9	5
3977	21123	65.1	1
3977	21352	65.516906256623	5
3977	21473	65.803090774726	7
3977	22790	68.4	6
3977	23031	68.9	4
3977	23185	69.20008537834	2
3977	23297	69.410936216284	1
3977	23542	69.820129814476	3
3977	23651	70.038467618521	1
3977	23824	70.347696624445	2
3977	23869	70.429182821208	2
3977	23985	70.636906920492	1
3977	25007	72.6	1
3977	25104	72.8	1
3977	25188	72.932818471786	1
3977	25209	73.006668381718	1
3977	25277	73.138267087704	1
3977	26388	75.2	2
3977	26513	75.4	2
3977	26733	75.807627743401	4
3977	26756	75.823876609943	3
3977	26852	76.012150133862	1
3977	26903	76.132918483113	2
3977	26967	76.213436680668	1
3977	26973	76.220174933334	1
3977	28024	78.8	5
3977	28110	79	2
3977	28194	79.216561204583	1
3977	28281	79.423986073012	1
3977	29340	81.7	3
3977	29516	82	3
3977	30800	84.5	4
3977	30945	84.8	2
3977	31219	85.404277888769	5
3977	31310	85.607770635337	4
3977	32448	87.9	4
3977	32803	88.5	5
3977	33025	88.904093073906	3
3977	33145	89.109522753674	3
3977	33187	89.204806728146	3
3977	34367	91.6	5
3977	34482	91.9	2
3977	34584	92.105505140766	1
3977	34594	92.111139518659	1
3977	34752	92.40615064271	2
3977	34843	92.612823536538	1
3977	35927	94.8	3
3977	36202	95.4	6
3977	37290	97.6	3
3977	37590	98.2	6
3977	37772	98.605087127529	3
3977	37775	98.605258305099	4
3977	38015	99.01334091494	3
3977	38025	99.013897319102	3
3977	38027	99.014678862718	3
3977	39116	101.4	4
3977	39231	101.7	2
3977	39427	102.101136220169	3
3977	39441	102.110361053853	2
3977	40484	104.3	2
3977	40643	104.6	2
3977	40812	104.904047161401	2
3977	40891	105.01655957121	2
3977	42113	107.3	5
3977	42242	107.6	2
3977	42404	108.006194847775	3
3977	42700	108.509035590478	5
3977	42868	108.818352880988	2
3977	43070	109.239258446964	3
3977	44074	111.4	2
3977	44165	111.6	1
3977	44362	112.003834068945	3
3977	45326	114.1	0
3977	45508	114.5	3
3977	45664	114.804790647863	3
3977	45780	115.104866482168	2
3977	46747	117.4	3
3977	47043	118.109721359768	7
3977	47181	118.517053734405	3
3977	47326	118.822968044234	2
3977	48236	120.7	1
3977	48584	121.3	5
3977	48651	121.418421592372	3
3977	48658	121.425537708111	5
3977	49714	123.8	2
3977	49819	124.105175434495	2
3977	49903	124.311181852351	2
3977	49999	124.543859490207	3
3977	50084	124.714625071505	3
3977	51133	126.7	2
3977	51214	126.9	1
3977	51334	127.208382579602	2
3977	51418	127.418161908336	1
3977	52407	129.4	3
3977	52673	130.001459319891	5
3977	52945	130.503319404103	4
3977	53061	130.70758218693	3
3977	53122	130.806539991003	3
3977	53185	130.913520477469	1
3977	53191	130.917896482892	3
3977	54194	133.1	4
3977	54254	133.3	1
3977	56063	136.8	6
3977	56285	137.3	4
3977	56434	137.607145449786	2
3977	56524	137.812671624793	1
3977	57731	140.5	6
3977	57846	140.7	1
3977	58081	141.102894544103	3
3977	58182	141.307190233818	1
3977	59384	144	6
3977	59579	144.4	3
3977	59763	144.800372571754	4
3977	59939	145.103403017583	2
3977	59942	145.108596439981	6
3977	59944	145.108862991246	2
3977	59967	145.126631920258	2
3977	60936	147	1
3977	61372	147.8	8
3977	61486	148.004532012189	1
3977	62367	149.8	0
3977	62709	150.6	8
3977	62904	151.014083878481	3
3977	62969	151.115636677144	3
3977	63084	151.318259020041	2
3977	63192	151.525539313238	1
3977	64214	153.7	2
3977	64338	153.904310678299	2
3977	64478	154.116580809372	1
3977	64618	154.325172705489	1
3977	64706	154.532060171022	1
3977	66005	157.2	10
3977	66317	157.7	4
3977	66418	157.811755411677	2
3977	66473	157.907031313164	1
3977	66502	157.932482859314	1
3977	67735	160.1	5
3977	67978	160.6	4
3977	68358	161.305841753082	7
3977	69386	163.4	3
3977	69470	163.6	1
3977	69620	163.901138703927	2
3977	69779	164.211143528343	2
3977	70891	166.5	5
3977	71071	166.8	2
3977	71190	167.001982161498	1
3977	72311	169	1
3977	72530	169.5	5
3977	72663	169.809362334287	2
3977	73677	172.2	3
3977	73961	172.9	6
3977	74072	173.117574652857	2
3977	74146	173.30417543149	3
3977	74986	175.1	0
3977	75126	175.5	3
3977	75276	175.905079906049	3
3977	75469	176.310332345838	7
3977	75539	176.500792328785	2
3977	76615	178.6	2
3977	76755	178.8	1
3977	77034	179.209735791594	4
3977	77163	179.440319667107	1
3977	78230	182	4
3977	78664	182.914072401313	3
3977	78688	183	10
3977	78748	183.118074528448	1
3977	79661	184.7	1
3977	79746	184.9	1
3977	80223	185.90668784097	10
3977	80479	186.310707205356	3
3977	80733	186.716094600302	3
3977	80855	186.921044331183	1
3977	81885	189.2	2
3977	82024	189.5	3
3977	82124	189.702909526605	1
3977	82211	189.911260835473	1
3977	83179	192.1	1
3977	83478	192.9	9
3977	83632	193.223571714715	2
3977	83796	193.531042866553	2
3977	83799	193.5368922656	2
3977	84948	196.1	9
3977	85354	197	9
3977	85544	197.505919585886	4
3977	85639	197.721604484343	1
3977	85779	198.021937980251	2
3977	85864	198.227201419318	1
3977	86860	200.3	1
3977	87049	200.810674031958	4
3977	87142	201.010805220027	1
3977	87207	201.217251787619	1
3977	88145	203.3	1
3977	88263	203.6	2
3977	88446	203.900212888864	2
3977	88640	204.207285823705	3
3977	89791	206.3	3
3977	89968	206.7	3
3977	90053	207.000535781297	2
3977	90129	207.213595710405	1
3977	90153	207.306526896045	1
3977	90254	207.507432576226	1
3977	91341	209.8	4
3977	91461	210	1
3977	91611	210.405117081124	3
3977	91651	210.468322854644	4
3977	92543	212.5	0
3977	92752	212.9	3
3977	92865	213.113665908062	1
3977	92885	213.133513215114	1
3977	94214	216.3	9
3977	94358	216.609547342093	2
3977	94472	216.810237737382	1
3977	94709	217.21963355659	3
3977	95671	219.4	1
3977	95780	219.6	2
3977	95890	219.808529256747	1
3977	96159	220.418048704584	5
3977	97293	222.8	3
3977	97469	223.209597969972	3
3978	41	20.3	0.75
3978	68	20.6	0.75
3978	129	20.900831979294	0.75
3978	186	21.108725371441	0.875
3978	280	21.409722750681	0.75
3978	1332	23.8	0.625
3978	1515	24.2	0.625
3978	1647	24.419136347867	0.625
3978	1664	24.504527070352	0.75
3978	2586	26.6	1
3978	3027	27.3	0
3978	3140	27.501378468731	0.875
3978	4160	29.5	0.75
3978	4269	29.7	0.875
3978	4392	29.906774842927	0.875
3978	4425	29.963456645557	0.875
3978	4503	30.117270565793	0.875
3978	5487	32.1	0.875
3978	5593	32.3	0.875
3978	5754	32.605622152513	0.75
3978	5846	32.809699839208	0.875
3978	6768	35	0.75
3978	6976	35.41578149356	0.75
3978	7145	35.721925755893	0.75
3978	8253	38.1	0.5
3978	8675	39.1	-0.375
3978	9778	41.3	0.625
3978	9967	41.7	0.625
3978	10195	42.107165991188	0.625
3978	11487	44.8	0.125
3978	11713	45.4	0.25
3978	12728	47.5	0.75
3978	12896	47.9	0.625
3978	13200	48.405749981251	0.375
3978	13318	48.613873872814	0.75
3978	13416	48.801855684306	-0.25
3978	14466	51	0.75
3978	14715	51.5	0.5
3978	14903	51.808762072266	0.75
3978	14953	51.930337806119	0.875
3978	15033	52.109977681822	0.75
3978	15992	54.3	0.625
3978	16108	54.50500809137	0.875
3978	16391	55.009272988256	0.5
3978	16646	55.419186657966	0.625
3978	17548	57.4	0.875
3978	17745	57.9	0.5
3978	17850	58.109242851242	0.875
3978	17978	58.327463006421	0.875
3978	19127	60.8	0.125
3978	19301	61.2	0.625
3978	19490	61.602481118743	0.625
3978	19696	61.906352120486	0.75
3978	19779	62.008985317961	0.5
3978	19914	62.253863477536	0.875
3978	21019	64.9	0.375
3978	21123	65.1	0.875
3978	21352	65.516906256623	0.375
3978	21473	65.803090774726	0.125
3978	22790	68.4	0.25
3978	23031	68.9	0.5
3978	23185	69.20008537834	0.75
3978	23297	69.410936216284	0.875
3978	23542	69.820129814476	0.625
3978	23651	70.038467618521	0.875
3978	23824	70.347696624445	0.75
3978	23869	70.429182821208	0.75
3978	23985	70.636906920492	0.875
3978	25007	72.6	0.875
3978	25104	72.8	0.875
3978	25188	72.932818471786	0.875
3978	25209	73.006668381718	0.875
3978	25277	73.138267087704	0.875
3978	26388	75.2	0.75
3978	26513	75.4	0.75
3978	26733	75.807627743401	0.5
3978	26756	75.823876609943	0.625
3978	26852	76.012150133862	0.875
3978	26903	76.132918483113	0.75
3978	26967	76.213436680668	0.875
3978	26973	76.220174933334	0.875
3978	28024	78.8	0.375
3978	28110	79	0.75
3978	28194	79.216561204583	0.875
3978	28281	79.423986073012	0.88888888806105
3978	29340	81.7	0.625
3978	29516	82	0.625
3978	30800	84.5	0.5
3978	30945	84.8	0.75
3978	31219	85.404277888769	0.375
3978	31310	85.607770635337	0.5
3978	32448	87.9	0.5
3978	32803	88.5	0.375
3978	33025	88.904093073906	0.625
3978	33145	89.109522753674	0.625
3978	33187	89.204806728146	0.625
3978	34367	91.6	0.375
3978	34482	91.9	0.75
3978	34584	92.105505140766	0.875
3978	34594	92.111139518659	0.875
3978	34752	92.40615064271	0.75
3978	34843	92.612823536538	0.875
3978	35927	94.8	0.625
3978	36202	95.4	0.25
3978	37290	97.6	0.625
3978	37590	98.2	0.25
3978	37772	98.605087127529	0.625
3978	37775	98.605258305099	0.5
3978	38015	99.01334091494	0.625
3978	38025	99.013897319102	0.625
3978	38027	99.014678862718	0.625
3978	39116	101.4	0.5
3978	39231	101.7	0.75
3978	39427	102.101136220169	0.625
3978	39441	102.110361053853	0.75
3978	40484	104.3	0.75
3978	40643	104.6	0.75
3978	40812	104.904047161401	0.75
3978	40891	105.01655957121	0.75
3978	42113	107.3	0.375
3978	42242	107.6	0.75
3978	42404	108.006194847775	0.625
3978	42700	108.509035590478	0.375
3978	42868	108.818352880988	0.75
3978	43070	109.239258446964	0.625
3978	44074	111.4	0.75
3978	44165	111.6	0.875
3978	44362	112.003834068945	0.625
3978	45326	114.1	1
3978	45508	114.5	0.625
3978	45664	114.804790647863	0.625
3978	45780	115.104866482168	0.75
3978	46747	117.4	0.625
3978	47043	118.109721359768	0.125
3978	47181	118.517053734405	0.625
3978	47326	118.822968044234	0.75
3978	48236	120.7	0.875
3978	48584	121.3	0.375
3978	48651	121.418421592372	0.625
3978	48658	121.425537708111	0.375
3978	49714	123.8	0.75
3978	49819	124.105175434495	0.75
3978	49903	124.311181852351	0.75
3978	49999	124.543859490207	0.625
3978	50084	124.714625071505	0.625
3978	51133	126.7	0.75
3978	51214	126.9	0.875
3978	51334	127.208382579602	0.75
3978	51418	127.418161908336	0.875
3978	52407	129.4	0.625
3978	52673	130.001459319891	0.375
3978	52945	130.503319404103	0.5
3978	53061	130.70758218693	0.625
3978	53122	130.806539991003	0.625
3978	53185	130.913520477469	0.875
3978	53191	130.917896482892	0.625
3978	54194	133.1	0.5
3978	54254	133.3	0.875
3978	56063	136.8	0.25
3978	56285	137.3	0.5
3978	56434	137.607145449786	0.75
3978	56524	137.812671624793	0.875
3978	57731	140.5	0.25
3978	57846	140.7	0.875
3978	58081	141.102894544103	0.625
3978	58182	141.307190233818	0.875
3978	59384	144	0.25
3978	59579	144.4	0.625
3978	59763	144.800372571754	0.5
3978	59939	145.103403017583	0.75
3978	59942	145.108596439981	0.25
3978	59944	145.108862991246	0.75
3978	59967	145.126631920258	0.75
3978	60936	147	0.875
3978	61372	147.8	0
3978	61486	148.004532012189	0.875
3978	62367	149.8	1
3978	62709	150.6	0
3978	62904	151.014083878481	0.625
3978	62969	151.115636677144	0.625
3978	63084	151.318259020041	0.75
3978	63192	151.525539313238	0.875
3978	64214	153.7	0.75
3978	64338	153.904310678299	0.75
3978	64478	154.116580809372	0.875
3978	64618	154.325172705489	0.875
3978	64706	154.532060171022	0.875
3978	66005	157.2	-0.25
3978	66317	157.7	0.5
3978	66418	157.811755411677	0.75
3978	66473	157.907031313164	0.875
3978	66502	157.932482859314	0.875
3978	67735	160.1	0.375
3978	67978	160.6	0.5
3978	68358	161.305841753082	0.125
3978	69386	163.4	0.625
3978	69470	163.6	0.875
3978	69620	163.901138703927	0.75
3978	69779	164.211143528343	0.75
3978	70891	166.5	0.375
3978	71071	166.8	0.75
3978	71190	167.001982161498	0.875
3978	72311	169	0.875
3978	72530	169.5	0.375
3978	72663	169.809362334287	0.75
3978	73677	172.2	0.625
3978	73961	172.9	0.25
3978	74072	173.117574652857	0.75
3978	74146	173.30417543149	0.625
3978	74986	175.1	1
3978	75126	175.5	0.625
3978	75276	175.905079906049	0.625
3978	75469	176.310332345838	0.125
3978	75539	176.500792328785	0.75
3978	76615	178.6	0.75
3978	76755	178.8	0.875
3978	77034	179.209735791594	0.5
3978	77163	179.440319667107	0.875
3978	78230	182	0.5
3978	78664	182.914072401313	0.625
3978	78688	183	-0.25
3978	78748	183.118074528448	0.875
3978	79661	184.7	0.875
3978	79746	184.9	0.88888888806105
3978	80223	185.90668784097	-0.25
3978	80479	186.310707205356	0.625
3978	80733	186.716094600302	0.625
3978	80855	186.921044331183	0.875
3978	81885	189.2	0.75
3978	82024	189.5	0.625
3978	82124	189.702909526605	0.875
3978	82211	189.911260835473	0.875
3978	83179	192.1	0.875
3978	83478	192.9	-0.125
3978	83632	193.223571714715	0.75
3978	83796	193.531042866553	0.75
3978	83799	193.5368922656	0.75
3978	84948	196.1	-0.125
3978	85354	197	-0.125
3978	85544	197.505919585886	0.5
3978	85639	197.721604484343	0.875
3978	85779	198.021937980251	0.75
3978	85864	198.227201419318	0.875
3978	86860	200.3	0.875
3978	87049	200.810674031958	0.5
3978	87142	201.010805220027	0.875
3978	87207	201.217251787619	0.875
3978	88145	203.3	0.875
3978	88263	203.6	0.75
3978	88446	203.900212888864	0.75
3978	88640	204.207285823705	0.625
3978	89791	206.3	0.625
3978	89968	206.7	0.625
3978	90053	207.000535781297	0.75
3978	90129	207.213595710405	0.875
3978	90153	207.306526896045	0.875
3978	90254	207.507432576226	0.875
3978	91341	209.8	0.5
3978	91461	210	0.875
3978	91611	210.405117081124	0.625
3978	91651	210.468322854644	0.5
3978	92543	212.5	1
3978	92752	212.9	0.625
3978	92865	213.113665908062	0.875
3978	92885	213.133513215114	0.875
3978	94214	216.3	-0.125
3978	94358	216.609547342093	0.75
3978	94472	216.810237737382	0.875
3978	94709	217.21963355659	0.625
3978	95671	219.4	0.875
3978	95780	219.6	0.75
3978	95890	219.808529256747	0.875
3978	96159	220.418048704584	0.375
3978	97293	222.8	0.625
3978	97469	223.209597969972	0.625
3979	41	20.3	0.2
3979	68	20.6	0.3
3979	129	20.900831979294	0.3
3979	186	21.108725371441	0.2
3979	280	21.409722750681	0.3
3979	1332	23.8	0.2
3979	1515	24.2	0.4
3979	1647	24.419136347867	0.4
3979	1664	24.504527070352	0.3
3979	2586	26.6	0
3979	3027	27.3	0.7
3979	3140	27.501378468731	0.2
3979	4160	29.5	0.2
3979	4269	29.7	0.2
3979	4392	29.906774842927	0.2
3979	4425	29.963456645557	0.2
3979	4503	30.117270565793	0.2
3979	5487	32.1	0.1
3979	5593	32.3	0.2
3979	5754	32.605622152513	0.3
3979	5846	32.809699839208	0.2
3979	6768	35	0.2
3979	6976	35.41578149356	0.3
3979	7145	35.721925755893	0.3
3979	8253	38.1	0.3
3979	8675	39.1	1
3979	9778	41.3	0.3
3979	9967	41.7	0.4
3979	10195	42.107165991188	0.4
3979	11487	44.8	0.7
3979	11713	45.4	0.6
3979	12728	47.5	0.2
3979	12896	47.9	0.4
3979	13200	48.405749981251	0.5
3979	13318	48.613873872814	0.2
3979	13416	48.801855684306	0.9
3979	14466	51	0.2
3979	14715	51.5	0.5
3979	14903	51.808762072266	0.3
3979	14953	51.930337806119	0.2
3979	15033	52.109977681822	0.3
3979	15992	54.3	0.2
3979	16108	54.50500809137	0.2
3979	16391	55.009272988256	0.5
3979	16646	55.419186657966	0.4
3979	17548	57.4	0.1
3979	17745	57.9	0.5
3979	17850	58.109242851242	0.2
3979	17978	58.327463006421	0.2
3979	19127	60.8	0.5
3979	19301	61.2	0.4
3979	19490	61.602481118743	0.4
3979	19696	61.906352120486	0.3
3979	19779	62.008985317961	0.3
3979	19914	62.253863477536	0.2
3979	21019	64.9	0.5
3979	21123	65.1	0.2
3979	21352	65.516906256623	0.5
3979	21473	65.803090774726	0.7
3979	22790	68.4	0.6
3979	23031	68.9	0.5
3979	23185	69.20008537834	0.3
3979	23297	69.410936216284	0.2
3979	23542	69.820129814476	0.4
3979	23651	70.038467618521	0.2
3979	23824	70.347696624445	0.3
3979	23869	70.429182821208	0.3
3979	23985	70.636906920492	0.2
3979	25007	72.6	0.1
3979	25104	72.8	0.2
3979	25188	72.932818471786	0.2
3979	25209	73.006668381718	0.2
3979	25277	73.138267087704	0.2
3979	26388	75.2	0.2
3979	26513	75.4	0.2
3979	26733	75.807627743401	0.4
3979	26756	75.823876609943	0.4
3979	26852	76.012150133862	0.2
3979	26903	76.132918483113	0.3
3979	26967	76.213436680668	0.2
3979	26973	76.220174933334	0.2
3979	28024	78.8	0.4
3979	28110	79	0.2
3979	28194	79.216561204583	0.2
3979	28281	79.423986073012	0.2
3979	29340	81.7	0.3
3979	29516	82	0.3
3979	30800	84.5	0.4
3979	30945	84.8	0.3
3979	31219	85.404277888769	0.6
3979	31310	85.607770635337	0.5
3979	32448	87.9	0.4
3979	32803	88.5	0.6
3979	33025	88.904093073906	0.4
3979	33145	89.109522753674	0.4
3979	33187	89.204806728146	0.3
3979	34367	91.6	0.5
3979	34482	91.9	0.3
3979	34584	92.105505140766	0.2
3979	34594	92.111139518659	0.2
3979	34752	92.40615064271	0.3
3979	34843	92.612823536538	0.2
3979	35927	94.8	0.3
3979	36202	95.4	0.6
3979	37290	97.6	0.3
3979	37590	98.2	0.6
3979	37772	98.605087127529	0.4
3979	37775	98.605258305099	0.5
3979	38015	99.01334091494	0.4
3979	38025	99.013897319102	0.4
3979	38027	99.014678862718	0.4
3979	39116	101.4	0.4
3979	39231	101.7	0.3
3979	39427	102.101136220169	0.4
3979	39441	102.110361053853	0.3
3979	40484	104.3	0.2
3979	40643	104.6	0.3
3979	40812	104.904047161401	0.3
3979	40891	105.01655957121	0.3
3979	42113	107.3	0.5
3979	42242	107.6	0.3
3979	42404	108.006194847775	0.4
3979	42700	108.509035590478	0.5
3979	42868	108.818352880988	0.3
3979	43070	109.239258446964	0.4
3979	44074	111.4	0.2
3979	44165	111.6	0.2
3979	44362	112.003834068945	0.4
3979	45326	114.1	0
3979	45508	114.5	0.4
3979	45664	114.804790647863	0.3
3979	45780	115.104866482168	0.3
3979	46747	117.4	0.2
3979	47043	118.109721359768	0.7
3979	47181	118.517053734405	0.4
3979	47326	118.822968044234	0.3
3979	48236	120.7	0.1
3979	48584	121.3	0.6
3979	48651	121.418421592372	0.4
3979	48658	121.425537708111	0.6
3979	49714	123.8	0.2
3979	49819	124.105175434495	0.3
3979	49903	124.311181852351	0.2
3979	49999	124.543859490207	0.4
3979	50084	124.714625071505	0.4
3979	51133	126.7	0.2
3979	51214	126.9	0.2
3979	51334	127.208382579602	0.3
3979	51418	127.418161908336	0.2
3979	52407	129.4	0.3
3979	52673	130.001459319891	0.6
3979	52945	130.503319404103	0.5
3979	53061	130.70758218693	0.4
3979	53122	130.806539991003	0.3
3979	53185	130.913520477469	0.2
3979	53191	130.917896482892	0.4
3979	54194	133.1	0.4
3979	54254	133.3	0.2
3979	56063	136.8	0.6
3979	56285	137.3	0.5
3979	56434	137.607145449786	0.3
3979	56524	137.812671624793	0.2
3979	57731	140.5	0.6
3979	57846	140.7	0.2
3979	58081	141.102894544103	0.4
3979	58182	141.307190233818	0.2
3979	59384	144	0.6
3979	59579	144.4	0.4
3979	59763	144.800372571754	0.4
3979	59939	145.103403017583	0.3
3979	59942	145.108596439981	0.7
3979	59944	145.108862991246	0.3
3979	59967	145.126631920258	0.3
3979	60936	147	0.1
3979	61372	147.8	0.8
3979	61486	148.004532012189	0.2
3979	62367	149.8	0
3979	62709	150.6	0.8
3979	62904	151.014083878481	0.4
3979	62969	151.115636677144	0.3
3979	63084	151.318259020041	0.3
3979	63192	151.525539313238	0.2
3979	64214	153.7	0.2
3979	64338	153.904310678299	0.2
3979	64478	154.116580809372	0.2
3979	64618	154.325172705489	0.2
3979	64706	154.532060171022	0.2
3979	66005	157.2	0.9
3979	66317	157.7	0.5
3979	66418	157.811755411677	0.2
3979	66473	157.907031313164	0.2
3979	66502	157.932482859314	0.2
3979	67735	160.1	0.4
3979	67978	160.6	0.5
3979	68358	161.305841753082	0.7
3979	69386	163.4	0.3
3979	69470	163.6	0.2
3979	69620	163.901138703927	0.3
3979	69779	164.211143528343	0.3
3979	70891	166.5	0.4
3979	71071	166.8	0.3
3979	71190	167.001982161498	0.2
3979	72311	169	0.1
3979	72530	169.5	0.5
3979	72663	169.809362334287	0.3
3979	73677	172.2	0.2
3979	73961	172.9	0.7
3979	74072	173.117574652857	0.3
3979	74146	173.30417543149	0.4
3979	74986	175.1	0
3979	75126	175.5	0.4
3979	75276	175.905079906049	0.4
3979	75469	176.310332345838	0.6
3979	75539	176.500792328785	0.3
3979	76615	178.6	0.2
3979	76755	178.8	0.2
3979	77034	179.209735791594	0.4
3979	77163	179.440319667107	0.2
3979	78230	182	0.4
3979	78664	182.914072401313	0.4
3979	78688	183	1
3979	78748	183.118074528448	0.2
3979	79661	184.7	0.1
3979	79746	184.9	0.2
3979	80223	185.90668784097	1
3979	80479	186.310707205356	0.4
3979	80733	186.716094600302	0.4
3979	80855	186.921044331183	0.2
3979	81885	189.2	0.2
3979	82024	189.5	0.3
3979	82124	189.702909526605	0.2
3979	82211	189.911260835473	0.2
3979	83179	192.1	0.1
3979	83478	192.9	0.8
3979	83632	193.223571714715	0.3
3979	83796	193.531042866553	0.3
3979	83799	193.5368922656	0.3
3979	84948	196.1	0.8
3979	85354	197	0.9
3979	85544	197.505919585886	0.5
3979	85639	197.721604484343	0.2
3979	85779	198.021937980251	0.3
3979	85864	198.227201419318	0.2
3979	86860	200.3	0.1
3979	87049	200.810674031958	0.5
3979	87142	201.010805220027	0.2
3979	87207	201.217251787619	0.2
3979	88145	203.3	0.1
3979	88263	203.6	0.3
3979	88446	203.900212888864	0.3
3979	88640	204.207285823705	0.3
3979	89791	206.3	0.2
3979	89968	206.7	0.4
3979	90053	207.000535781297	0.3
3979	90129	207.213595710405	0.2
3979	90153	207.306526896045	0.2
3979	90254	207.507432576226	0.2
3979	91341	209.8	0.4
3979	91461	210	0.2
3979	91611	210.405117081124	0.4
3979	91651	210.468322854644	0.5
3979	92543	212.5	0
3979	92752	212.9	0.4
3979	92865	213.113665908062	0.2
3979	92885	213.133513215114	0.2
3979	94214	216.3	0.8
3979	94358	216.609547342093	0.3
3979	94472	216.810237737382	0.2
3979	94709	217.21963355659	0.4
3979	95671	219.4	0.1
3979	95780	219.6	0.2
3979	95890	219.808529256747	0.2
3979	96159	220.418048704584	0.6
3979	97293	222.8	0.3
3979	97469	223.209597969972	0.4
3980	33	20.2	0
3980	48	20.4	1
3980	100	20.709475945525	2
3980	137	20.94647515392	1
3980	1094	23.4	1
3980	1212	23.6	1
3980	1391	23.906279579905	2
3980	1441	24.017928904743	2
3980	2368	26.2	3
3980	2516	26.5	3
3980	2763	26.908518815678	3
3980	3898	28.8	1
3980	4021	29.103369499097	2
3980	5591	32.3	5
3980	5831	32.8	5
3980	5984	33.101963849433	2
3980	7016	35.5	3
3980	7122	35.7	2
3980	7282	36.013785808032	2
3980	7493	36.432400622713	4
3980	7596	36.738968416147	2
3980	8499	38.7	0
3980	8700	39.109949926466	3
3980	8910	39.512925443839	3
3980	9074	39.812910516794	3
3980	9108	39.912966492659	3
3980	10251	42.3	4
3980	10394	42.6	2
3980	10531	42.91394067787	3
3980	10537	42.92248743138	3
3980	10567	43.005818259725	3
3980	11675	45.3	6
3980	11765	45.5	1
3980	11884	45.712911468217	1
3980	12327	46.727133153165	10
3980	13347	48.7	4
3980	13477	48.9	1
3980	13666	49.300176445005	3
3980	13745	49.505484053771	1
3980	14780	51.6	2
3980	14927	51.9	2
3980	15079	52.207755405253	2
3980	15139	52.308163516116	2
3980	15192	52.410186842975	1
3980	15288	52.613183077051	1
3980	16254	54.8	1
3980	16455	55.1	2
3980	16695	55.502418134647	3
3980	16770	55.619534999596	1
3980	17832	58.1	5
3980	18137	58.626457507976	4
3980	18153	58.7	6
3980	18233	58.834219977783	1
3980	19244	61.1	2
3980	19555	61.7	6
3980	19658	61.815320038149	2
3980	19701	61.908956602131	1
3980	20708	64.1	2
3980	20780	64.304762807784	1
3980	20872	64.610155693061	2
3980	22088	67	4
3980	22199	67.2	1
3980	22303	67.405101892857	1
3980	22465	67.709674657892	2
3980	23515	69.8	2
3980	23665	70.1	2
3980	23955	70.600737841441	4
3980	24141	70.902449366345	2
3980	24283	71.203215076885	2
3980	24406	71.407487429612	1
3980	24427	71.416910762192	1