version 2
run Stability-94-20130526-18:53:24-1898
attr configname Stability
attr datetime 20130526-18:53:24
attr experiment Stability
attr inifile omnetpp.ini
attr iterationvars $0=1e-3
attr iterationvars2 "$0=1e-3, $repetition=4"
attr measurement $0=1e-3
attr network Network
attr processid 1898
attr repetition 4
attr replication #4
attr resultdir results
attr runnumber 94
attr seedset 94

vector 9214  Network.churner  inGoingSizeSig:vector  ETV
vector 9157  Network.dyn_peer[13]  lookupHopsSig:vector  ETV
vector 9158  Network.dyn_peer[13]  lookupStabilitySig:vector  ETV
vector 9159  Network.dyn_peer[13]  lookupTimeSig:vector  ETV
vector 9184  Network.dyn_peer[22]  lookupHopsSig:vector  ETV
vector 9185  Network.dyn_peer[22]  lookupStabilitySig:vector  ETV
vector 9186  Network.dyn_peer[22]  lookupTimeSig:vector  ETV
vector 9187  Network.dyn_peer[23]  lookupHopsSig:vector  ETV
vector 9188  Network.dyn_peer[23]  lookupStabilitySig:vector  ETV
vector 9189  Network.dyn_peer[23]  lookupTimeSig:vector  ETV
vector 9190  Network.dyn_peer[24]  lookupHopsSig:vector  ETV
vector 9191  Network.dyn_peer[24]  lookupStabilitySig:vector  ETV
vector 9192  Network.dyn_peer[24]  lookupTimeSig:vector  ETV
vector 9199  Network.dyn_peer[27]  lookupHopsSig:vector  ETV
vector 9200  Network.dyn_peer[27]  lookupStabilitySig:vector  ETV
vector 9201  Network.dyn_peer[27]  lookupTimeSig:vector  ETV
vector 9208  Network.dyn_peer[30]  lookupHopsSig:vector  ETV
vector 9209  Network.dyn_peer[30]  lookupStabilitySig:vector  ETV
vector 9210  Network.dyn_peer[30]  lookupTimeSig:vector  ETV
vector 9121  Network.dyn_peer[1]  lookupHopsSig:vector  ETV
vector 9122  Network.dyn_peer[1]  lookupStabilitySig:vector  ETV
vector 9123  Network.dyn_peer[1]  lookupTimeSig:vector  ETV
vector 9139  Network.dyn_peer[7]  lookupHopsSig:vector  ETV
vector 9140  Network.dyn_peer[7]  lookupStabilitySig:vector  ETV
vector 9141  Network.dyn_peer[7]  lookupTimeSig:vector  ETV
vector 9142  Network.dyn_peer[8]  lookupHopsSig:vector  ETV
vector 9143  Network.dyn_peer[8]  lookupStabilitySig:vector  ETV
vector 9144  Network.dyn_peer[8]  lookupTimeSig:vector  ETV
vector 9175  Network.dyn_peer[19]  lookupHopsSig:vector  ETV
vector 9176  Network.dyn_peer[19]  lookupStabilitySig:vector  ETV
vector 9177  Network.dyn_peer[19]  lookupTimeSig:vector  ETV
vector 9181  Network.dyn_peer[21]  lookupHopsSig:vector  ETV
vector 9182  Network.dyn_peer[21]  lookupStabilitySig:vector  ETV
vector 9183  Network.dyn_peer[21]  lookupTimeSig:vector  ETV
vector 9202  Network.dyn_peer[28]  lookupHopsSig:vector  ETV
vector 9203  Network.dyn_peer[28]  lookupStabilitySig:vector  ETV
vector 9204  Network.dyn_peer[28]  lookupTimeSig:vector  ETV
vector 9124  Network.dyn_peer[2]  lookupHopsSig:vector  ETV
vector 9125  Network.dyn_peer[2]  lookupStabilitySig:vector  ETV
vector 9126  Network.dyn_peer[2]  lookupTimeSig:vector  ETV
vector 9127  Network.dyn_peer[3]  lookupHopsSig:vector  ETV
vector 9128  Network.dyn_peer[3]  lookupStabilitySig:vector  ETV
vector 9129  Network.dyn_peer[3]  lookupTimeSig:vector  ETV
vector 9136  Network.dyn_peer[6]  lookupHopsSig:vector  ETV
vector 9137  Network.dyn_peer[6]  lookupStabilitySig:vector  ETV
vector 9138  Network.dyn_peer[6]  lookupTimeSig:vector  ETV
vector 9154  Network.dyn_peer[12]  lookupHopsSig:vector  ETV
vector 9155  Network.dyn_peer[12]  lookupStabilitySig:vector  ETV
vector 9156  Network.dyn_peer[12]  lookupTimeSig:vector  ETV
vector 9160  Network.dyn_peer[14]  lookupHopsSig:vector  ETV
vector 9161  Network.dyn_peer[14]  lookupStabilitySig:vector  ETV
vector 9162  Network.dyn_peer[14]  lookupTimeSig:vector  ETV
vector 9163  Network.dyn_peer[15]  lookupHopsSig:vector  ETV
vector 9164  Network.dyn_peer[15]  lookupStabilitySig:vector  ETV
vector 9165  Network.dyn_peer[15]  lookupTimeSig:vector  ETV
vector 9169  Network.dyn_peer[17]  lookupHopsSig:vector  ETV
vector 9170  Network.dyn_peer[17]  lookupStabilitySig:vector  ETV
vector 9171  Network.dyn_peer[17]  lookupTimeSig:vector  ETV
vector 9178  Network.dyn_peer[20]  lookupHopsSig:vector  ETV
vector 9179  Network.dyn_peer[20]  lookupStabilitySig:vector  ETV
vector 9180  Network.dyn_peer[20]  lookupTimeSig:vector  ETV
vector 9193  Network.dyn_peer[25]  lookupHopsSig:vector  ETV
vector 9194  Network.dyn_peer[25]  lookupStabilitySig:vector  ETV
vector 9195  Network.dyn_peer[25]  lookupTimeSig:vector  ETV
vector 9130  Network.dyn_peer[4]  lookupHopsSig:vector  ETV
vector 9131  Network.dyn_peer[4]  lookupStabilitySig:vector  ETV
vector 9132  Network.dyn_peer[4]  lookupTimeSig:vector  ETV
vector 9133  Network.dyn_peer[5]  lookupHopsSig:vector  ETV
vector 9134  Network.dyn_peer[5]  lookupStabilitySig:vector  ETV
vector 9135  Network.dyn_peer[5]  lookupTimeSig:vector  ETV
vector 9145  Network.dyn_peer[9]  lookupHopsSig:vector  ETV
vector 9146  Network.dyn_peer[9]  lookupStabilitySig:vector  ETV
vector 9147  Network.dyn_peer[9]  lookupTimeSig:vector  ETV
vector 9151  Network.dyn_peer[11]  lookupHopsSig:vector  ETV
vector 9152  Network.dyn_peer[11]  lookupStabilitySig:vector  ETV
vector 9153  Network.dyn_peer[11]  lookupTimeSig:vector  ETV
vector 9166  Network.dyn_peer[16]  lookupHopsSig:vector  ETV
vector 9167  Network.dyn_peer[16]  lookupStabilitySig:vector  ETV
vector 9168  Network.dyn_peer[16]  lookupTimeSig:vector  ETV
vector 9205  Network.dyn_peer[29]  lookupHopsSig:vector  ETV
vector 9206  Network.dyn_peer[29]  lookupStabilitySig:vector  ETV
vector 9207  Network.dyn_peer[29]  lookupTimeSig:vector  ETV
vector 9211  Network.dyn_peer[31]  lookupHopsSig:vector  ETV
vector 9212  Network.dyn_peer[31]  lookupStabilitySig:vector  ETV
vector 9213  Network.dyn_peer[31]  lookupTimeSig:vector  ETV
vector 9118  Network.dyn_peer[0]  lookupHopsSig:vector  ETV
vector 9119  Network.dyn_peer[0]  lookupStabilitySig:vector  ETV
vector 9120  Network.dyn_peer[0]  lookupTimeSig:vector  ETV
vector 9148  Network.dyn_peer[10]  lookupHopsSig:vector  ETV
vector 9149  Network.dyn_peer[10]  lookupStabilitySig:vector  ETV
vector 9150  Network.dyn_peer[10]  lookupTimeSig:vector  ETV
vector 9172  Network.dyn_peer[18]  lookupHopsSig:vector  ETV
vector 9173  Network.dyn_peer[18]  lookupStabilitySig:vector  ETV
vector 9174  Network.dyn_peer[18]  lookupTimeSig:vector  ETV
vector 9196  Network.dyn_peer[26]  lookupHopsSig:vector  ETV
vector 9197  Network.dyn_peer[26]  lookupStabilitySig:vector  ETV
vector 9198  Network.dyn_peer[26]  lookupTimeSig:vector  ETV
9118	356	20.400001	4
9118	2037	22.100001	16
9118	2545	22.508601307316	3
9118	3324	23.117172467653	7
9118	3623	23.417172467653	3
9118	3916	23.72099186357	2
9118	3944	23.726527120997	2
9118	5286	24.830307670045	11
9118	5990	25.530307670045	6
9118	6402	25.933414811049	4
9118	6414	25.938202973001	4
9118	7904	27.239940205598	13
9118	7926	27.24268143399	13
9118	7947	27.251589856262	13
9118	8219	27.465446397182	1
9118	9153	28.272957679204	8
9118	10169	29.272957679204	9
9118	10478	29.575274829015	3
9118	10550	29.631989039384	2
9118	11066	29.983550327902	3
9118	11128	30.03336038949	4
9118	11489	30.284962593899	6
9118	12236	30.82427701948	4
9118	12433	31.02427701948	1
9118	13113	31.635063158365	5
9118	13591	32.036405106131	4
9118	13610	32.039872295115	0
9118	14402	32.617529129489	2
9118	15154	33.317529129489	7
9118	15332	33.525147123376	1
9118	15556	33.734873154644	1
9118	16606	34.64192325908	10
9118	17530	35.54192325908	9
9118	17922	35.932767581988	7
9118	18132	36.14137337953	1
9118	18350	36.350418614056	8
9118	18466	36.451116142388	1
9118	18920	36.851116142388	3
9118	19273	37.154894434333	2
9118	19309	37.163819560615	0
9118	20039	37.763819560615	6
9118	20198	37.881073640227	0
9118	20558	38.182089686045	2
9118	21262	38.682190686045	5
9118	21947	39.182190686045	4
9118	22751	39.788351167861	6
9118	23399	40.292523162361	5
9118	24289	40.992523162361	6
9118	24612	41.293353226918	2
9118	24703	41.381868661737	6
9118	25033	41.688199097096	2
9118	25260	41.889559274754	1
9118	25978	42.389660274754	6
9118	26569	42.792610127909	4
9118	26970	43.09605991579	2
9118	27378	43.405287637434	2
9118	27412	43.416051845478	4
9118	27416	43.416151845478	3
9118	27831	43.716252845478	4
9118	28611	44.416252845478	7
9118	28963	44.709053543922	1
9118	29220	44.918670539925	4
9118	29244	44.920685803039	4
9118	29465	45.111204140942	4
9118	29495	45.127691914593	1
9118	29506	45.1297906648	1
9118	29817	45.4298916648	3
9118	31037	46.5298916648	10
9118	31587	47.03717130647	4
9118	31662	47.06953403331	3
9118	32249	47.569922769906	4
9118	32259	47.577091270187	4
9118	32529	47.838996179748	8
9118	33129	48.346545364999	5
9118	34042	49.146545364999	7
9118	34173	49.247084153217	0
9118	34623	49.664283087926	3
9118	35120	50.070562843057	4
9118	35279	50.190070502932	1
9118	35416	50.29085945851	0
9118	35742	50.572913998386	4
9118	35747	50.573665122716	4
9118	35973	50.773766122716	2
9118	36879	51.611480906883	2
9118	37789	52.511480906883	9
9118	38182	52.811581906883	3
9118	38417	53.011581906883	1
9118	38795	53.413035528887	3
9118	39620	54.122402681819	6
9118	40504	54.930620991616	8
9118	40605	55.027179418877	7
9118	40775	55.135553852943	1
9118	41122	55.435553852943	2
9118	41582	55.844109950323	3
9118	41870	56.149875648241	2
9118	42037	56.320004762486	2
9118	42288	56.52042895599	2
9118	42978	57.12042895599	5
9118	43658	57.630257119352	5
9118	44061	57.931880161351	2
9118	44113	57.965844726832	2
9118	44435	58.232163110413	2
9118	44649	58.367810270757	3
9118	44803	58.469123630519	1
9118	45019	58.669123630519	1
9118	46091	59.609182889582	4
9118	47267	60.801491133499	2
9118	47531	61.005953935052	1
9118	47537	61.009182889582	15
9118	47804	61.312321709404	3
9118	48819	62.212321709404	8
9118	49582	62.913614804845	6
9118	50038	63.223249128351	2
9118	50362	63.532267850136	2
9118	50808	63.936801812956	4
9118	52166	65.02891808748	7
9118	53385	66.209672820253	10
9118	53425	66.22891808748	11
9118	53957	66.629172129758	4
9118	54623	67.129172129758	4
9118	55150	67.538713336334	3
9118	55875	68.175300356163	2
9118	55976	68.245161865985	7
9118	56603	68.749962191059	6
9118	57330	69.349962191059	6
9118	58107	69.950063191059	7
9118	58696	70.45631002415	4
9118	59323	71.067778177263	5
9118	59696	71.370471438336	2
9118	60123	71.773796362526	3
9118	60194	71.800223876031	6
9118	60823	72.405549880265	6
9118	61301	72.805549880265	4
9118	61819	73.21315852468	3
9118	61827	73.214610825976	7
9118	61971	73.350328615569	4
9118	62178	73.552215466738	2
9118	62973	74.252215466738	7
9118	63323	74.558304809966	2
9118	64145	75.266811996093	6
9118	64742	75.769396858001	4
9118	64758	75.771209776333	0
9118	65124	76.07451616702	2
9118	66373	76.97461716702	12
9118	66948	77.47461716702	4
9118	67200	77.679048052651	1
9118	67388	77.869800866134	1
9118	67671	78.081083489462	3
9118	68031	78.371009317233	4
9118	68156	78.475224736531	1
9118	68564	78.78311569886	3
9118	68846	79.044837006817	2
9118	69298	79.386950929261	0
9118	69563	79.60241828128	1
9118	69934	79.905613103098	3
9118	70125	80.105613103098	1
9118	70373	80.306326157163	1
9118	70584	80.508311327465	1
9118	71109	80.922428244178	3
9118	71508	81.32697433732	3
9118	71800	81.534515653815	2
9118	71998	81.734515653815	1
9118	72783	82.377066332427	4
9118	72816	82.404283767485	4
9118	73584	82.943480262332	14
9118	73609	82.986999594424	6
9118	73729	83.116746552576	8
9118	73977	83.318978446993	9
9118	74005	83.324878996465	1
9118	75726	84.727824666716	16
9118	76264	85.127824666716	4
9118	76762	85.636423484114	5
9118	76797	85.64425732553	0
9118	77031	85.846126096362	1
9118	77617	86.35132751294	5
9118	77925	86.65132751294	2
9118	78753	87.358600132908	6
9118	78782	87.361298769732	0
9118	79013	87.561298769732	1
9118	79330	87.861399769732	3
9118	80291	88.661399769732	8
9118	80319	88.672075427459	6
9118	81177	89.376714972703	7
9118	82621	90.776714972703	13
9118	83796	91.689789188459	8
9118	83834	91.706275812643	8
9118	84386	92.196475546219	4
9118	84517	92.307814792526	5
9118	85240	92.811370335795	5
9118	85328	92.899208571043	4
9118	85335	92.899408571043	4
9118	86582	93.902572506302	11
9118	87346	94.602572506302	6
9118	87940	95.012140693293	3
9118	87997	95.045353489103	3
9118	88318	95.249486884127	2
9118	88578	95.452603152796	1
9118	88629	95.514700213385	6
9118	89036	95.821557948221	3
9118	89455	96.221557948221	3
9118	90842	97.429506379505	13
9118	91308	97.736150040632	2
9118	91328	97.73899056734	0
9118	92069	98.30201719837	3
9118	93427	99.50201719837	12
9118	94076	100.01160266237	4
9118	94308	100.219715265358	1
9118	94751	100.522613149499	4
9118	95008	100.722613149499	1
9118	95463	101.022714149499	4
9118	95971	101.422714149499	3
9118	96667	102.025618903333	5
9118	96989	102.333813467256	2
9118	97649	102.853776363088	6
9118	98104	103.238181840569	8
9118	98171	103.302906586926	8
9118	98850	103.839058775835	6
9118	98934	103.912670778308	5
9118	99288	104.20045284236	4
9118	99396	104.306712213346	0
9118	99415	104.318001297164	3
9118	99674	104.527831704094	4
9118	99691	104.547273738671	6
9118	100101	104.851988197951	3
9118	100323	105.051988197951	1
9118	100681	105.356757674156	2
9118	101251	105.957482569366	5
9118	102977	107.547735232935	13
9118	103574	108.147735232935	5
9118	103935	108.449747848236	2
9118	104186	108.658534886729	2
9118	104580	109.058534886729	3
9118	105154	109.561124372201	4
9118	105651	110.063235066056	4
9118	106087	110.464992799631	3
9118	106359	110.684602370647	7
9118	106635	110.971475350032	4
9118	106783	111.087630747251	4
9118	106938	111.190990160847	1
9118	107427	111.590990160847	3
9118	107884	111.996493191138	3
9118	108252	112.30148132341	3
9118	108982	112.907153014696	5
9118	109189	113.086760142228	3
9118	109459	113.298648373749	13
9118	109815	113.60773863744	3
9118	110384	114.019859844386	1
9118	111370	114.721058604376	8
9118	112192	115.321058604376	5
9118	112449	115.530319148484	1
9118	112725	115.768231837288	3
9118	112862	115.875877150711	1
9118	112881	115.908345889183	5
9118	113242	116.209602655094	3
9118	113773	116.709602655094	5
9118	114022	116.916486041313	1
9118	114288	117.11819113872	1
9118	114531	117.319731045772	1
9118	114581	117.355461151565	1
9118	115834	118.264290392549	10
9118	117602	119.764290392549	17
9118	118003	120.07343116358	2
9118	118865	120.783775933898	6
9118	119233	121.091831076581	2
9118	119676	121.472283939719	7
9118	119974	121.700686717716	5
9118	120518	122.100787717716	4
9118	120739	122.300787717716	1
9118	121245	122.704947817313	3
9118	121725	123.113676446414	3
9118	122114	123.520268451562	3
9118	122131	123.52628983236	0
9118	123192	124.41929938902	5
9118	123697	124.81929938902	4
9118	124142	125.239527621699	3
9118	124403	125.447746980847	2
9118	125400	126.247746980847	8
9118	125801	126.550635410063	2
9118	126719	127.253760498973	7
9118	127180	127.653760498973	3
9118	127826	128.156975962646	5
9118	129064	129.233827187929	2
9118	129449	129.557663276433	15
9118	129462	129.562980726892	14
9118	129648	129.734246975046	4
9118	129845	129.874277082438	5
9118	130048	130.064371162056	4
9118	130050	130.064584124651	4
9118	130143	130.136350768308	3
9118	130398	130.342432770606	2
9118	131170	131.142432770606	7
9118	131676	131.554126393747	3
9118	132186	131.962390143534	4
9118	132614	132.334729411585	6
9118	132976	132.668756677192	7
9118	133471	133.078165013619	4
9118	133934	133.578165013619	4
9118	133950	133.578479402657	0
9118	134443	133.982916995402	3
9118	135001	134.482916995402	5
9118	135651	135.048838436705	4
9118	135812	135.202184327789	7
9118	135819	135.206345251909	7
9118	136051	135.404900920432	1
9118	136200	135.507419373983	2
9118	136426	135.719003130179	2
9118	136690	135.924094098163	2
9119	356	20.400001	0.5
9119	2037	22.100001	-1
9119	2545	22.508601307316	0.625
9119	3324	23.117172467653	0.125
9119	3623	23.417172467653	0.625
9119	3916	23.72099186357	0.75
9119	3944	23.726527120997	0.75
9119	5286	24.830307670045	-0.375
9119	5990	25.530307670045	0.25
9119	6402	25.933414811049	0.5
9119	6414	25.938202973001	0.5
9119	7904	27.239940205598	-0.625
9119	7926	27.24268143399	-0.625
9119	7947	27.251589856262	-0.625
9119	8219	27.465446397182	0.875
9119	9153	28.272957679204	0
9119	10169	29.272957679204	-0.125
9119	10478	29.575274829015	0.625
9119	10550	29.631989039384	0.75
9119	11066	29.983550327902	0.625
9119	11128	30.03336038949	0.5
9119	11489	30.284962593899	0.25
9119	12236	30.82427701948	0.5
9119	12433	31.02427701948	0.875
9119	13113	31.635063158365	0.375
9119	13591	32.036405106131	0.5
9119	13610	32.039872295115	1
9119	14402	32.617529129489	0.75
9119	15154	33.317529129489	0.125
9119	15332	33.525147123376	0.875
9119	15556	33.734873154644	0.875
9119	16606	34.64192325908	-0.25
9119	17530	35.54192325908	-0.125
9119	17922	35.932767581988	0.125
9119	18132	36.14137337953	0.875
9119	18350	36.350418614056	0
9119	18466	36.451116142388	0.875
9119	18920	36.851116142388	0.625
9119	19273	37.154894434333	0.75
9119	19309	37.163819560615	1
9119	20039	37.763819560615	0.25
9119	20198	37.881073640227	1
9119	20558	38.182089686045	0.75
9119	21262	38.682190686045	0.375
9119	21947	39.182190686045	0.5
9119	22751	39.788351167861	0.25
9119	23399	40.292523162361	0.44444441795349
9119	24289	40.992523162361	0.25
9119	24612	41.293353226918	0.75
9119	24703	41.381868661737	0.25
9119	25033	41.688199097096	0.75
9119	25260	41.889559274754	0.875
9119	25978	42.389660274754	0.25
9119	26569	42.792610127909	0.5
9119	26970	43.09605991579	0.75
9119	27378	43.405287637434	0.75
9119	27412	43.416051845478	0.5
9119	27416	43.416151845478	0.625
9119	27831	43.716252845478	0.5
9119	28611	44.416252845478	0.125
9119	28963	44.709053543922	0.875
9119	29220	44.918670539925	0.5
9119	29244	44.920685803039	0.5
9119	29465	45.111204140942	0.5
9119	29495	45.127691914593	0.875
9119	29506	45.1297906648	0.875
9119	29817	45.4298916648	0.625
9119	31037	46.5298916648	-0.25
9119	31587	47.03717130647	0.5
9119	31662	47.06953403331	0.625
9119	32249	47.569922769906	0.5
9119	32259	47.577091270187	0.5
9119	32529	47.838996179748	0
9119	33129	48.346545364999	0.375
9119	34042	49.146545364999	0.125
9119	34173	49.247084153217	1
9119	34623	49.664283087926	0.625
9119	35120	50.070562843057	0.5
9119	35279	50.190070502932	0.875
9119	35416	50.29085945851	1
9119	35742	50.572913998386	0.5
9119	35747	50.573665122716	0.5
9119	35973	50.773766122716	0.75
9119	36879	51.611480906883	0.75
9119	37789	52.511480906883	-0.125
9119	38182	52.811581906883	0.625
9119	38417	53.011581906883	0.875
9119	38795	53.413035528887	0.625
9119	39620	54.122402681819	0.25
9119	40504	54.930620991616	0
9119	40605	55.027179418877	0.125
9119	40775	55.135553852943	0.875
9119	41122	55.435553852943	0.75
9119	41582	55.844109950323	0.625
9119	41870	56.149875648241	0.75
9119	42037	56.320004762486	0.75
9119	42288	56.52042895599	0.75
9119	42978	57.12042895599	0.375
9119	43658	57.630257119352	0.375
9119	44061	57.931880161351	0.75
9119	44113	57.965844726832	0.75
9119	44435	58.232163110413	0.75
9119	44649	58.367810270757	0.625
9119	44803	58.469123630519	0.875
9119	45019	58.669123630519	0.875
9119	46091	59.609182889582	0.5
9119	47267	60.801491133499	0.75
9119	47531	61.005953935052	0.875
9119	47537	61.009182889582	-0.875
9119	47804	61.312321709404	0.625
9119	48819	62.212321709404	0
9119	49582	62.913614804845	0.25
9119	50038	63.223249128351	0.75
9119	50362	63.532267850136	0.75
9119	50808	63.936801812956	0.5
9119	52166	65.02891808748	0.125
9119	53385	66.209672820253	-0.25
9119	53425	66.22891808748	-0.375
9119	53957	66.629172129758	0.5
9119	54623	67.129172129758	0.5
9119	55150	67.538713336334	0.625
9119	55875	68.175300356163	0.75
9119	55976	68.245161865985	0.125
9119	56603	68.749962191059	0.25
9119	57330	69.349962191059	0.25
9119	58107	69.950063191059	0.125
9119	58696	70.45631002415	0.5
9119	59323	71.067778177263	0.375
9119	59696	71.370471438336	0.75
9119	60123	71.773796362526	0.625
9119	60194	71.800223876031	0.25
9119	60823	72.405549880265	0.25
9119	61301	72.805549880265	0.5
9119	61819	73.21315852468	0.625
9119	61827	73.214610825976	0.125
9119	61971	73.350328615569	0.5
9119	62178	73.552215466738	0.75
9119	62973	74.252215466738	0.125
9119	63323	74.558304809966	0.75
9119	64145	75.266811996093	0.25
9119	64742	75.769396858001	0.5
9119	64758	75.771209776333	1
9119	65124	76.07451616702	0.75
9119	66373	76.97461716702	-0.5
9119	66948	77.47461716702	0.5
9119	67200	77.679048052651	0.875
9119	67388	77.869800866134	0.875
9119	67671	78.081083489462	0.625
9119	68031	78.371009317233	0.5
9119	68156	78.475224736531	0.875
9119	68564	78.78311569886	0.625
9119	68846	79.044837006817	0.75
9119	69298	79.386950929261	1
9119	69563	79.60241828128	0.875
9119	69934	79.905613103098	0.625
9119	70125	80.105613103098	0.875
9119	70373	80.306326157163	0.875
9119	70584	80.508311327465	0.875
9119	71109	80.922428244178	0.625
9119	71508	81.32697433732	0.625
9119	71800	81.534515653815	0.75
9119	71998	81.734515653815	0.875
9119	72783	82.377066332427	0.5
9119	72816	82.404283767485	0.5
9119	73584	82.943480262332	-0.75
9119	73609	82.986999594424	0.25
9119	73729	83.116746552576	0
9119	73977	83.318978446993	-0.125
9119	74005	83.324878996465	0.875
9119	75726	84.727824666716	-1
9119	76264	85.127824666716	0.5
9119	76762	85.636423484114	0.375
9119	76797	85.64425732553	1
9119	77031	85.846126096362	0.875
9119	77617	86.35132751294	0.375
9119	77925	86.65132751294	0.75
9119	78753	87.358600132908	0.33333331346512
9119	78782	87.361298769732	1
9119	79013	87.561298769732	0.875
9119	79330	87.861399769732	0.625
9119	80291	88.661399769732	0
9119	80319	88.672075427459	0.25
9119	81177	89.376714972703	0.125
9119	82621	90.776714972703	-0.625
9119	83796	91.689789188459	0
9119	83834	91.706275812643	0
9119	84386	92.196475546219	0.5
9119	84517	92.307814792526	0.375
9119	85240	92.811370335795	0.375
9119	85328	92.899208571043	0.5
9119	85335	92.899408571043	0.5
9119	86582	93.902572506302	-0.375
9119	87346	94.602572506302	0.25
9119	87940	95.012140693293	0.625
9119	87997	95.045353489103	0.625
9119	88318	95.249486884127	0.75
9119	88578	95.452603152796	0.875
9119	88629	95.514700213385	0.25
9119	89036	95.821557948221	0.625
9119	89455	96.221557948221	0.625
9119	90842	97.429506379505	-0.625
9119	91308	97.736150040632	0.75
9119	91328	97.73899056734	1
9119	92069	98.30201719837	0.625
9119	93427	99.50201719837	-0.5
9119	94076	100.01160266237	0.5
9119	94308	100.219715265358	0.875
9119	94751	100.522613149499	0.5
9119	95008	100.722613149499	0.875
9119	95463	101.022714149499	0.5
9119	95971	101.422714149499	0.625
9119	96667	102.025618903333	0.375
9119	96989	102.333813467256	0.75
9119	97649	102.853776363088	0.25
9119	98104	103.238181840569	0
9119	98171	103.302906586926	0
9119	98850	103.839058775835	0.25
9119	98934	103.912670778308	0.375
9119	99288	104.20045284236	0.5
9119	99396	104.306712213346	1
9119	99415	104.318001297164	0.625
9119	99674	104.527831704094	0.5
9119	99691	104.547273738671	0.25
9119	100101	104.851988197951	0.625
9119	100323	105.051988197951	0.875
9119	100681	105.356757674156	0.75
9119	101251	105.957482569366	0.375
9119	102977	107.547735232935	-0.625
9119	103574	108.147735232935	0.375
9119	103935	108.449747848236	0.75
9119	104186	108.658534886729	0.75
9119	104580	109.058534886729	0.625
9119	105154	109.561124372201	0.5
9119	105651	110.063235066056	0.5
9119	106087	110.464992799631	0.625
9119	106359	110.684602370647	0.125
9119	106635	110.971475350032	0.5
9119	106783	111.087630747251	0.5
9119	106938	111.190990160847	0.875
9119	107427	111.590990160847	0.625
9119	107884	111.996493191138	0.625
9119	108252	112.30148132341	0.625
9119	108982	112.907153014696	0.375
9119	109189	113.086760142228	0.625
9119	109459	113.298648373749	-0.625
9119	109815	113.60773863744	0.625
9119	110384	114.019859844386	0.875
9119	111370	114.721058604376	0
9119	112192	115.321058604376	0.375
9119	112449	115.530319148484	0.875
9119	112725	115.768231837288	0.625
9119	112862	115.875877150711	0.875
9119	112881	115.908345889183	0.375
9119	113242	116.209602655094	0.625
9119	113773	116.709602655094	0.375
9119	114022	116.916486041313	0.875
9119	114288	117.11819113872	0.875
9119	114531	117.319731045772	0.875
9119	114581	117.355461151565	0.875
9119	115834	118.264290392549	-0.25
9119	117602	119.764290392549	-1.125
9119	118003	120.07343116358	0.75
9119	118865	120.783775933898	0.25
9119	119233	121.091831076581	0.75
9119	119676	121.472283939719	0.125
9119	119974	121.700686717716	0.375
9119	120518	122.100787717716	0.5
9119	120739	122.300787717716	0.875
9119	121245	122.704947817313	0.625
9119	121725	123.113676446414	0.625
9119	122114	123.520268451562	0.625
9119	122131	123.52628983236	1
9119	123192	124.41929938902	0.375
9119	123697	124.81929938902	0.5
9119	124142	125.239527621699	0.625
9119	124403	125.447746980847	0.75
9119	125400	126.247746980847	0
9119	125801	126.550635410063	0.75
9119	126719	127.253760498973	0.125
9119	127180	127.653760498973	0.625
9119	127826	128.156975962646	0.375
9119	129064	129.233827187929	0.75
9119	129449	129.557663276433	-0.875
9119	129462	129.562980726892	-0.75
9119	129648	129.734246975046	0.5
9119	129845	129.874277082438	0.375
9119	130048	130.064371162056	0.5
9119	130050	130.064584124651	0.5
9119	130143	130.136350768308	0.625
9119	130398	130.342432770606	0.75
9119	131170	131.142432770606	0.125
9119	131676	131.554126393747	0.625
9119	132186	131.962390143534	0.5
9119	132614	132.334729411585	0.25
9119	132976	132.668756677192	0.125
9119	133471	133.078165013619	0.5
9119	133934	133.578165013619	0.5
9119	133950	133.578479402657	1
9119	134443	133.982916995402	0.625
9119	135001	134.482916995402	0.375
9119	135651	135.048838436705	0.5
9119	135812	135.202184327789	0.125
9119	135819	135.206345251909	0.125
9119	136051	135.404900920432	0.875
9119	136200	135.507419373983	0.75
9119	136426	135.719003130179	0.75
9119	136690	135.924094098163	0.75
9120	356	20.400001	0.4
9120	2037	22.100001	1.7
9120	2545	22.508601307316	0.4
9120	3324	23.117172467653	0.6
9120	3623	23.417172467653	0.3
9120	3916	23.72099186357	0.3
9120	3944	23.726527120997	0.3
9120	5286	24.830307670045	1.1
9120	5990	25.530307670045	0.7
9120	6402	25.933414811049	0.4
9120	6414	25.938202973001	0.4
9120	7904	27.239940205598	1.3
9120	7926	27.24268143399	1.3
9120	7947	27.251589856262	1.3
9120	8219	27.465446397182	0.2
9120	9153	28.272957679204	0.8
9120	10169	29.272957679204	1
9120	10478	29.575274829015	0.3
9120	10550	29.631989039384	0.3
9120	11066	29.983550327902	0.4
9120	11128	30.03336038949	0.4
9120	11489	30.284962593899	0.6
9120	12236	30.82427701948	0.4
9120	12433	31.02427701948	0.2
9120	13113	31.635063158365	0.6
9120	13591	32.036405106131	0.4
9120	13610	32.039872295115	0
9120	14402	32.617529129489	0.2
9120	15154	33.317529129489	0.7
9120	15332	33.525147123376	0.2
9120	15556	33.734873154644	0.2
9120	16606	34.64192325908	0.9
9120	17530	35.54192325908	0.9
9120	17922	35.932767581988	0.7
9120	18132	36.14137337953	0.2
9120	18350	36.350418614056	0.8
9120	18466	36.451116142388	0.1
9120	18920	36.851116142388	0.4
9120	19273	37.154894434333	0.3
9120	19309	37.163819560615	0
9120	20039	37.763819560615	0.6
9120	20198	37.881073640227	0.1
9120	20558	38.182089686045	0.3
9120	21262	38.682190686045	0.5
9120	21947	39.182190686045	0.5
9120	22751	39.788351167861	0.6
9120	23399	40.292523162361	0.5
9120	24289	40.992523162361	0.7
9120	24612	41.293353226918	0.3
9120	24703	41.381868661737	0.7
9120	25033	41.688199097096	0.3
9120	25260	41.889559274754	0.2
9120	25978	42.389660274754	0.5
9120	26569	42.792610127909	0.4
9120	26970	43.09605991579	0.3
9120	27378	43.405287637434	0.3
9120	27412	43.416051845478	0.4
9120	27416	43.416151845478	0.4
9120	27831	43.716252845478	0.3
9120	28611	44.416252845478	0.7
9120	28963	44.709053543922	0.2
9120	29220	44.918670539925	0.5
9120	29244	44.920685803039	0.5
9120	29465	45.111204140942	0.4
9120	29495	45.127691914593	0.2
9120	29506	45.1297906648	0.2
9120	29817	45.4298916648	0.3
9120	31037	46.5298916648	1.1
9120	31587	47.03717130647	0.5
9120	31662	47.06953403331	0.4
9120	32249	47.569922769906	0.5
9120	32259	47.577091270187	0.5
9120	32529	47.838996179748	0.8
9120	33129	48.346545364999	0.5
9120	34042	49.146545364999	0.8
9120	34173	49.247084153217	0.1
9120	34623	49.664283087926	0.4
9120	35120	50.070562843057	0.4
9120	35279	50.190070502932	0.2
9120	35416	50.29085945851	0.1
9120	35742	50.572913998386	0.5
9120	35747	50.573665122716	0.5
9120	35973	50.773766122716	0.2
9120	36879	51.611480906883	0.2
9120	37789	52.511480906883	0.9
9120	38182	52.811581906883	0.3
9120	38417	53.011581906883	0.2
9120	38795	53.413035528887	0.4
9120	39620	54.122402681819	0.7
9120	40504	54.930620991616	0.8
9120	40605	55.027179418877	0.8
9120	40775	55.135553852943	0.1
9120	41122	55.435553852943	0.3
9120	41582	55.844109950323	0.4
9120	41870	56.149875648241	0.3
9120	42037	56.320004762486	0.3
9120	42288	56.52042895599	0.2
9120	42978	57.12042895599	0.6
9120	43658	57.630257119352	0.5
9120	44061	57.931880161351	0.3
9120	44113	57.965844726832	0.2
9120	44435	58.232163110413	0.3
9120	44649	58.367810270757	0.4
9120	44803	58.469123630519	0.1
9120	45019	58.669123630519	0.2
9120	46091	59.609182889582	0.4
9120	47267	60.801491133499	0.2
9120	47531	61.005953935052	0.2
9120	47537	61.009182889582	1.4
9120	47804	61.312321709404	0.3
9120	48819	62.212321709404	0.9
9120	49582	62.913614804845	0.7
9120	50038	63.223249128351	0.3
9120	50362	63.532267850136	0.3
9120	50808	63.936801812956	0.4
9120	52166	65.02891808748	0.6
9120	53385	66.209672820253	1
9120	53425	66.22891808748	1.2
9120	53957	66.629172129758	0.4
9120	54623	67.129172129758	0.5
9120	55150	67.538713336334	0.4
9120	55875	68.175300356163	0.3
9120	55976	68.245161865985	0.7
9120	56603	68.749962191059	0.5
9120	57330	69.349962191059	0.6
9120	58107	69.950063191059	0.6
9120	58696	70.45631002415	0.5
9120	59323	71.067778177263	0.6
9120	59696	71.370471438336	0.3
9120	60123	71.773796362526	0.4
9120	60194	71.800223876031	0.7
9120	60823	72.405549880265	0.6
9120	61301	72.805549880265	0.4
9120	61819	73.21315852468	0.4
9120	61827	73.214610825976	0.6
9120	61971	73.350328615569	0.4
9120	62178	73.552215466738	0.2
9120	62973	74.252215466738	0.7
9120	63323	74.558304809966	0.3
9120	64145	75.266811996093	0.7
9120	64742	75.769396858001	0.5
9120	64758	75.771209776333	0
9120	65124	76.07451616702	0.3
9120	66373	76.97461716702	0.9
9120	66948	77.47461716702	0.5
9120	67200	77.679048052651	0.2
9120	67388	77.869800866134	0.2
9120	67671	78.081083489462	0.4