version 2
run Stability-71-20130526-18:51:49-1898
attr configname Stability
attr datetime 20130526-18:51:49
attr experiment Stability
attr inifile omnetpp.ini
attr iterationvars $0=1e-1
attr iterationvars2 "$0=1e-1, $repetition=1"
attr measurement $0=1e-1
attr network Network
attr processid 1898
attr repetition 1
attr replication #1
attr resultdir results
attr runnumber 71
attr seedset 71

vector 6983  Network.churner  inGoingSizeSig:vector  ETV
vector 6887  Network.dyn_peer[0]  lookupHopsSig:vector  ETV
vector 6888  Network.dyn_peer[0]  lookupStabilitySig:vector  ETV
vector 6889  Network.dyn_peer[0]  lookupTimeSig:vector  ETV
vector 6902  Network.dyn_peer[5]  lookupHopsSig:vector  ETV
vector 6903  Network.dyn_peer[5]  lookupStabilitySig:vector  ETV
vector 6904  Network.dyn_peer[5]  lookupTimeSig:vector  ETV
vector 6911  Network.dyn_peer[8]  lookupHopsSig:vector  ETV
vector 6912  Network.dyn_peer[8]  lookupStabilitySig:vector  ETV
vector 6913  Network.dyn_peer[8]  lookupTimeSig:vector  ETV
vector 6920  Network.dyn_peer[11]  lookupHopsSig:vector  ETV
vector 6921  Network.dyn_peer[11]  lookupStabilitySig:vector  ETV
vector 6922  Network.dyn_peer[11]  lookupTimeSig:vector  ETV
vector 6947  Network.dyn_peer[20]  lookupHopsSig:vector  ETV
vector 6948  Network.dyn_peer[20]  lookupStabilitySig:vector  ETV
vector 6949  Network.dyn_peer[20]  lookupTimeSig:vector  ETV
vector 6956  Network.dyn_peer[23]  lookupHopsSig:vector  ETV
vector 6957  Network.dyn_peer[23]  lookupStabilitySig:vector  ETV
vector 6958  Network.dyn_peer[23]  lookupTimeSig:vector  ETV
vector 6971  Network.dyn_peer[28]  lookupHopsSig:vector  ETV
vector 6972  Network.dyn_peer[28]  lookupStabilitySig:vector  ETV
vector 6973  Network.dyn_peer[28]  lookupTimeSig:vector  ETV
vector 6977  Network.dyn_peer[30]  lookupHopsSig:vector  ETV
vector 6978  Network.dyn_peer[30]  lookupStabilitySig:vector  ETV
vector 6979  Network.dyn_peer[30]  lookupTimeSig:vector  ETV
vector 6890  Network.dyn_peer[1]  lookupHopsSig:vector  ETV
vector 6891  Network.dyn_peer[1]  lookupStabilitySig:vector  ETV
vector 6892  Network.dyn_peer[1]  lookupTimeSig:vector  ETV
vector 6893  Network.dyn_peer[2]  lookupHopsSig:vector  ETV
vector 6894  Network.dyn_peer[2]  lookupStabilitySig:vector  ETV
vector 6895  Network.dyn_peer[2]  lookupTimeSig:vector  ETV
vector 6896  Network.dyn_peer[3]  lookupHopsSig:vector  ETV
vector 6897  Network.dyn_peer[3]  lookupStabilitySig:vector  ETV
vector 6898  Network.dyn_peer[3]  lookupTimeSig:vector  ETV
vector 6905  Network.dyn_peer[6]  lookupHopsSig:vector  ETV
vector 6906  Network.dyn_peer[6]  lookupStabilitySig:vector  ETV
vector 6907  Network.dyn_peer[6]  lookupTimeSig:vector  ETV
vector 6914  Network.dyn_peer[9]  lookupHopsSig:vector  ETV
vector 6915  Network.dyn_peer[9]  lookupStabilitySig:vector  ETV
vector 6916  Network.dyn_peer[9]  lookupTimeSig:vector  ETV
vector 6932  Network.dyn_peer[15]  lookupHopsSig:vector  ETV
vector 6933  Network.dyn_peer[15]  lookupStabilitySig:vector  ETV
vector 6934  Network.dyn_peer[15]  lookupTimeSig:vector  ETV
vector 6944  Network.dyn_peer[19]  lookupHopsSig:vector  ETV
vector 6945  Network.dyn_peer[19]  lookupStabilitySig:vector  ETV
vector 6946  Network.dyn_peer[19]  lookupTimeSig:vector  ETV
vector 6953  Network.dyn_peer[22]  lookupHopsSig:vector  ETV
vector 6954  Network.dyn_peer[22]  lookupStabilitySig:vector  ETV
vector 6955  Network.dyn_peer[22]  lookupTimeSig:vector  ETV
vector 6965  Network.dyn_peer[26]  lookupHopsSig:vector  ETV
vector 6966  Network.dyn_peer[26]  lookupStabilitySig:vector  ETV
vector 6967  Network.dyn_peer[26]  lookupTimeSig:vector  ETV
vector 6908  Network.dyn_peer[7]  lookupHopsSig:vector  ETV
vector 6909  Network.dyn_peer[7]  lookupStabilitySig:vector  ETV
vector 6910  Network.dyn_peer[7]  lookupTimeSig:vector  ETV
vector 6923  Network.dyn_peer[12]  lookupHopsSig:vector  ETV
vector 6924  Network.dyn_peer[12]  lookupStabilitySig:vector  ETV
vector 6925  Network.dyn_peer[12]  lookupTimeSig:vector  ETV
vector 6929  Network.dyn_peer[14]  lookupHopsSig:vector  ETV
vector 6930  Network.dyn_peer[14]  lookupStabilitySig:vector  ETV
vector 6931  Network.dyn_peer[14]  lookupTimeSig:vector  ETV
vector 6935  Network.dyn_peer[16]  lookupHopsSig:vector  ETV
vector 6936  Network.dyn_peer[16]  lookupStabilitySig:vector  ETV
vector 6937  Network.dyn_peer[16]  lookupTimeSig:vector  ETV
vector 6968  Network.dyn_peer[27]  lookupHopsSig:vector  ETV
vector 6969  Network.dyn_peer[27]  lookupStabilitySig:vector  ETV
vector 6970  Network.dyn_peer[27]  lookupTimeSig:vector  ETV
vector 6980  Network.dyn_peer[31]  lookupHopsSig:vector  ETV
vector 6981  Network.dyn_peer[31]  lookupStabilitySig:vector  ETV
vector 6982  Network.dyn_peer[31]  lookupTimeSig:vector  ETV
vector 6938  Network.dyn_peer[17]  lookupHopsSig:vector  ETV
vector 6939  Network.dyn_peer[17]  lookupStabilitySig:vector  ETV
vector 6940  Network.dyn_peer[17]  lookupTimeSig:vector  ETV
vector 6941  Network.dyn_peer[18]  lookupHopsSig:vector  ETV
vector 6942  Network.dyn_peer[18]  lookupStabilitySig:vector  ETV
vector 6943  Network.dyn_peer[18]  lookupTimeSig:vector  ETV
vector 6959  Network.dyn_peer[24]  lookupHopsSig:vector  ETV
vector 6960  Network.dyn_peer[24]  lookupStabilitySig:vector  ETV
vector 6961  Network.dyn_peer[24]  lookupTimeSig:vector  ETV
vector 6962  Network.dyn_peer[25]  lookupHopsSig:vector  ETV
vector 6963  Network.dyn_peer[25]  lookupStabilitySig:vector  ETV
vector 6964  Network.dyn_peer[25]  lookupTimeSig:vector  ETV
vector 6974  Network.dyn_peer[29]  lookupHopsSig:vector  ETV
vector 6975  Network.dyn_peer[29]  lookupStabilitySig:vector  ETV
vector 6976  Network.dyn_peer[29]  lookupTimeSig:vector  ETV
vector 6899  Network.dyn_peer[4]  lookupHopsSig:vector  ETV
vector 6900  Network.dyn_peer[4]  lookupStabilitySig:vector  ETV
vector 6901  Network.dyn_peer[4]  lookupTimeSig:vector  ETV
vector 6917  Network.dyn_peer[10]  lookupHopsSig:vector  ETV
vector 6918  Network.dyn_peer[10]  lookupStabilitySig:vector  ETV
vector 6919  Network.dyn_peer[10]  lookupTimeSig:vector  ETV
vector 6950  Network.dyn_peer[21]  lookupHopsSig:vector  ETV
vector 6951  Network.dyn_peer[21]  lookupStabilitySig:vector  ETV
vector 6952  Network.dyn_peer[21]  lookupTimeSig:vector  ETV
vector 6926  Network.dyn_peer[13]  lookupHopsSig:vector  ETV
vector 6927  Network.dyn_peer[13]  lookupStabilitySig:vector  ETV
vector 6928  Network.dyn_peer[13]  lookupTimeSig:vector  ETV
6887	28	20.0001	0
6887	344	20.4001	3
6887	761	21.00781722526	5
6887	865	21.108782369934	2
6887	1141	21.408195428927	8
6887	2275	22.208395428927	10
6887	2841	22.712864492211	4
6887	3707	23.517711596751	8
6887	4137	23.837964859358	2
6887	5137	24.65279903598	8
6887	5370	24.869566707025	0
6887	6466	25.869566707025	10
6887	6816	26.179761985643	3
6887	7589	26.979761985643	7
6887	8308	27.579961985643	6
6887	9452	28.679961985643	10
6887	10378	29.388140215042	6
6887	10668	29.619195258275	10
6887	10686	29.620598242035	0
6887	10922	29.820598242035	1
6887	11702	30.424906332514	5
6887	12708	31.225106332514	8
6887	13067	31.525106332514	2
6887	13624	32.030266972545	4
6887	13890	32.239569682958	1
6887	14101	32.443766450432	1
6887	14122	32.461326599828	1
6887	14761	33.063171891098	6
6887	15023	33.263171891098	1
6887	15382	33.57187557837	3
6887	15639	33.77187557837	1
6887	15855	33.982399653359	1
6887	16207	34.288980609348	2
6887	16966	34.893774715212	6
6887	17541	35.42582082988	4
6887	18056	35.927664787925	4
6887	18309	36.132752655923	2
6887	19038	36.701919551259	4
6887	19779	37.301919551259	5
6887	20070	37.505009608881	1
6887	20582	38.008791757475	4
6887	20797	38.21140611118	7
6887	20962	38.409146900917	3
6887	21278	38.712514926823	3
6887	21893	39.312514926823	5
6887	22573	39.912714926823	9
6887	22881	40.212714926823	2
6887	23552	40.716632814634	4
6887	24489	41.521409369615	7
6887	24645	41.624205458085	8
6887	24883	41.823117451815	2
6887	25463	42.324269825746	6
6887	25823	42.624269825746	2
6887	26364	43.131447335356	3
6887	27669	44.231447335356	11
6887	28894	45.131647335356	9
6887	29207	45.431647335356	2
6887	30147	46.348221383527	9
6887	30517	46.652084365777	2
6887	30702	46.789696938447	2
6887	30752	46.842957989852	2
6887	31031	47.045829658064	2
6887	31495	47.445829658064	3
6887	31853	47.754598907458	3
6887	32230	48.056932267234	3
6887	32252	48.071558793678	2
6887	32339	48.154889910709	6
6887	32547	48.280958005613	1
6887	32693	48.368151172632	2
6887	33170	48.673215190276	3
6887	34390	49.589358474115	7
6887	35013	50.089358474115	4
6887	35221	50.258880823542	2
6887	36241	51.165658197783	11
6887	36746	51.665658197783	4
6887	37243	52.066294603583	5
6887	37668	52.375007793432	3
6887	38243	52.875007793432	5
6887	38572	53.182328647024	2
6887	38616	53.215068233544	2
6887	39038	53.682955300929	4
6887	39291	53.887148701511	2
6887	39507	54.087148701511	1
6887	40299	54.691879774976	6
6887	41595	55.791879774976	12
6887	41810	55.998370657306	1
6887	42442	56.507306699067	5
6887	42833	56.813411274555	2
6887	44131	57.81660804915	10
6887	44949	58.51660804915	6
6887	45417	58.925651712573	4
6887	46642	60.025651712573	10
6887	47178	60.432703154631	3
6887	47365	60.625892877862	3
6887	48195	61.328863887024	7
6887	49667	62.728863887024	13
6887	50141	63.131533066784	4
6887	50926	63.840924989809	8
6887	51799	64.540924989809	7
6887	52248	64.944063809597	3
6887	53614	66.052116555242	11
6887	55097	67.144081519793	7
6887	55111	67.153276675854	11
6887	55331	67.352212069963	1
6887	55485	67.456853312707	1
6887	55920	67.856853312707	3
6887	56691	68.566593187431	6
6887	56719	68.593912781692	6
6887	57019	68.871877061736	2
6887	57230	69.081089873688	1
6887	57589	69.395794935625	7
6887	57901	69.681841857367	6
6887	58025	69.78275568656	1
6887	58640	70.284386735996	4
6887	59043	70.588040773675	3
6887	59651	71.085989621177	3
6887	60568	71.885989621177	7
6887	61073	72.313357598341	0
6887	61310	72.513357598341	1
6887	61735	72.813557598341	3
6887	62565	73.513557598341	6
6887	63438	74.422179687865	9
6887	64077	74.931998625825	6
6887	64651	75.449599757776	4
6887	65230	75.949799757776	5
6887	65937	76.552002215007	5
6887	66342	76.9331632164	1
6887	66377	76.940544844087	0
6887	67355	77.740544844087	7
6887	67530	77.847704546913	1
6887	68548	78.553240419901	4
6887	69295	79.053240419901	4
6887	69592	79.255599330822	1
6887	70390	79.782439455386	1
6887	70917	80.182439455386	4
6887	71304	80.496107836356	2
6887	71801	80.905366000295	3
6887	71909	80.987567508697	3
6887	72036	81.091458985971	1
6887	72742	81.591458985971	4
6887	73237	81.998084992403	3
6887	73466	82.209572103304	1
6887	73491	82.269251095078	1
6887	73533	82.289870862427	9
6887	73700	82.471274830424	1
6887	74683	83.38098122744	9
6887	75052	83.690911887712	2
6887	75287	83.893458101516	2
6887	76392	84.693458101516	7
6887	76938	85.099499748853	4
6887	77319	85.399499748853	3
6887	77732	85.804216063247	3
6887	79064	86.912876444804	10
6887	79600	87.321984413393	17
6887	79625	87.328859322913	3
6887	79988	87.631994933871	3
6887	80360	87.931994933871	3
6887	81922	89.332989498119	14
6887	82774	90.03318805777	6
6887	82971	90.174814319209	1
6887	83232	90.376421948807	1
6887	83851	90.936545023114	8
6887	84201	91.18429520818	7
6887	84436	91.385481631984	1
6887	84623	91.492539404011	1
6887	85795	92.492539404011	9
6887	85979	92.653800598315	2
6887	86212	92.872258899764	1
6887	86446	93.072458899764	2
6887	86848	93.472458899764	3
6887	87531	94.081316335977	7
6887	87879	94.385010360251	3
6887	88494	94.985010360251	5
6887	89312	95.697140624935	4
6887	89474	95.787189506664	9
6887	89793	96.087554708697	2
6887	90069	96.288475816751	2
6887	90803	96.988475816751	6
6887	91018	97.199716536281	1
6887	91520	97.610900379797	3
6887	91527	97.611523946017	3
6887	91943	97.9173740874	2
6887	91945	97.917588156511	2
6887	92051	98.014082430775	2
6887	92280	98.21381988872	7
6887	92291	98.216039482208	3
6887	92626	98.416239482208	2
6887	93024	98.716239482208	2
6887	93509	99.120491905877	3
6887	93636	99.226812292963	2
6887	93907	99.424977757589	2
6887	94452	99.826976217701	6
6887	94479	99.82834634141	6
6887	95389	100.527162723021	6
6887	95998	100.95422313109	12
6887	96150	101.133104431839	18
6887	96301	101.231983259773	6
6887	96440	101.331613191894	15
6887	96448	101.336407561238	15
6887	96714	101.536544081793	3
6887	97941	102.636744081793	12
6887	98743	103.336744081793	6
6887	99245	103.840683849102	4
6887	99761	104.353440308556	4
6887	99991	104.557363718949	2
6887	100233	104.757363718949	1
6887	100746	105.261603776	4
6887	101225	105.675674266174	3
6887	101285	105.719332072607	3
6887	101676	106.083939875447	3
6887	102346	106.594692560218	4
6887	102382	106.600766324288	4
6887	102572	106.7259402308	12
6887	102732	106.898213137008	2
6887	103085	107.203982358909	3
6887	103327	107.403982358909	1
6887	103607	107.606640921741	1
6887	103629	107.609703793346	1
6887	103958	107.908962335214	2
6887	104237	108.122780149094	1
6887	104531	108.410417433816	7
6887	104884	108.711152437591	2
6887	104937	108.732233759158	2
6887	104945	108.732491790101	5
6887	105300	109.011320390436	2
6887	105441	109.112373893517	1
6887	106011	109.601335050532	2
6887	106305	109.801564890682	3
6887	107521	110.801564890682	10
6887	107652	110.902531518272	1
6887	108999	111.940995237264	3
6887	109454	112.340995237264	3
6887	109744	112.558478236202	1
6887	110612	113.290518752648	6
6887	111456	113.899457821442	6
6887	112286	114.599457821442	6
6887	112796	115.106817558113	4
6887	113338	115.612544310286	6
6887	113845	116.112544310286	4
6887	114213	116.415824508694	2
6887	114644	116.763755650048	3
6887	114781	116.825146161479	3
6887	116573	118.23379521091	16
6887	117305	118.83379521091	6
6887	117868	119.343189322622	4
6887	118648	120.046051689883	8
6887	119012	120.446051689883	3
6887	119420	120.846451409764	3
6887	119614	121.054152941407	2
6887	119806	121.254152941407	1
6887	120348	121.756751155896	4
6887	121013	122.256951155896	5
6887	121486	122.656951155896	3
6887	121762	122.857192069916	1
6887	122213	123.26523773147	3
6887	122822	123.76543773147	5
6887	123491	124.26543773147	4
6887	123746	124.471044463193	1
6887	124405	124.977959592562	5
6887	124754	125.277959592562	2
6887	125103	125.583194504334	2
6887	125533	125.917116601387	2
6887	125603	125.997877641751	4
6887	125960	126.298572430049	2
6887	126173	126.500337259941	1
6887	126295	126.607087031529	0
6887	126465	126.72456348931	7
6887	126550	126.807924591391	1
6887	126699	126.926449698978	1
6887	127440	127.642958672579	6
6887	127991	128.148346762593	6
6887	129604	129.448346762593	14
6887	129625	129.454305379572	4
6887	130468	130.230238163834	6
6887	130858	130.630400601257	3
6887	131032	130.838692184006	1
6887	131587	131.34292060437	5
6887	133180	132.64292060437	13
6887	133900	133.151379135743	5
6887	134223	133.360861428788	1
6887	134856	133.861129377915	6
6887	135777	134.661129377915	8
6888	28	20.0001	1
6888	344	20.4001	0.625
6888	761	21.00781722526	0.375
6888	865	21.108782369934	0.75
6888	1141	21.408195428927	0
6888	2275	22.208395428927	-0.25
6888	2841	22.712864492211	0.5
6888	3707	23.517711596751	0
6888	4137	23.837964859358	0.75
6888	5137	24.65279903598	0
6888	5370	24.869566707025	1
6888	6466	25.869566707025	-0.25
6888	6816	26.179761985643	0.625
6888	7589	26.979761985643	0.125
6888	8308	27.579961985643	0.25
6888	9452	28.679961985643	-0.25
6888	10378	29.388140215042	0.25
6888	10668	29.619195258275	-0.25
6888	10686	29.620598242035	1
6888	10922	29.820598242035	0.875
6888	11702	30.424906332514	0.375
6888	12708	31.225106332514	0
6888	13067	31.525106332514	0.75
6888	13624	32.030266972545	0.5
6888	13890	32.239569682958	0.875
6888	14101	32.443766450432	0.875
6888	14122	32.461326599828	0.875
6888	14761	33.063171891098	0.25
6888	15023	33.263171891098	0.875
6888	15382	33.57187557837	0.625
6888	15639	33.77187557837	0.875
6888	15855	33.982399653359	0.875
6888	16207	34.288980609348	0.75
6888	16966	34.893774715212	0.25
6888	17541	35.42582082988	0.5
6888	18056	35.927664787925	0.5
6888	18309	36.132752655923	0.75
6888	19038	36.701919551259	0.5
6888	19779	37.301919551259	0.375
6888	20070	37.505009608881	0.875
6888	20582	38.008791757475	0.5
6888	20797	38.21140611118	0.125
6888	20962	38.409146900917	0.625
6888	21278	38.712514926823	0.625
6888	21893	39.312514926823	0.375
6888	22573	39.912714926823	-0.125
6888	22881	40.212714926823	0.75
6888	23552	40.716632814634	0.5
6888	24489	41.521409369615	0.125
6888	24645	41.624205458085	0
6888	24883	41.823117451815	0.75
6888	25463	42.324269825746	0.25
6888	25823	42.624269825746	0.75
6888	26364	43.131447335356	0.625
6888	27669	44.231447335356	-0.375
6888	28894	45.131647335356	-0.125
6888	29207	45.431647335356	0.75
6888	30147	46.348221383527	-0.125
6888	30517	46.652084365777	0.75
6888	30702	46.789696938447	0.75
6888	30752	46.842957989852	0.75
6888	31031	47.045829658064	0.75
6888	31495	47.445829658064	0.625
6888	31853	47.754598907458	0.625
6888	32230	48.056932267234	0.625
6888	32252	48.071558793678	0.75
6888	32339	48.154889910709	0.25
6888	32547	48.280958005613	0.875
6888	32693	48.368151172632	0.75
6888	33170	48.673215190276	0.625
6888	34390	49.589358474115	0.125
6888	35013	50.089358474115	0.5
6888	35221	50.258880823542	0.75
6888	36241	51.165658197783	-0.375
6888	36746	51.665658197783	0.5
6888	37243	52.066294603583	0.375
6888	37668	52.375007793432	0.625
6888	38243	52.875007793432	0.375
6888	38572	53.182328647024	0.75
6888	38616	53.215068233544	0.75
6888	39038	53.682955300929	0.5
6888	39291	53.887148701511	0.75
6888	39507	54.087148701511	0.875
6888	40299	54.691879774976	0.25
6888	41595	55.791879774976	-0.5
6888	41810	55.998370657306	0.875
6888	42442	56.507306699067	0.375
6888	42833	56.813411274555	0.75
6888	44131	57.81660804915	-0.25
6888	44949	58.51660804915	0.25
6888	45417	58.925651712573	0.5
6888	46642	60.025651712573	-0.25
6888	47178	60.432703154631	0.625
6888	47365	60.625892877862	0.625
6888	48195	61.328863887024	0.125
6888	49667	62.728863887024	-0.625
6888	50141	63.131533066784	0.5
6888	50926	63.840924989809	0
6888	51799	64.540924989809	0.125
6888	52248	64.944063809597	0.625
6888	53614	66.052116555242	-0.375
6888	55097	67.144081519793	0.125
6888	55111	67.153276675854	-0.375
6888	55331	67.352212069963	0.875
6888	55485	67.456853312707	0.875
6888	55920	67.856853312707	0.625
6888	56691	68.566593187431	0.25
6888	56719	68.593912781692	0.25
6888	57019	68.871877061736	0.75
6888	57230	69.081089873688	0.875
6888	57589	69.395794935625	0.125
6888	57901	69.681841857367	0.25
6888	58025	69.78275568656	0.875
6888	58640	70.284386735996	0.5
6888	59043	70.588040773675	0.625
6888	59651	71.085989621177	0.625
6888	60568	71.885989621177	0.125
6888	61073	72.313357598341	1
6888	61310	72.513357598341	0.875
6888	61735	72.813557598341	0.625
6888	62565	73.513557598341	0.25
6888	63438	74.422179687865	0
6888	64077	74.931998625825	0.25
6888	64651	75.449599757776	0.5
6888	65230	75.949799757776	0.375
6888	65937	76.552002215007	0.375
6888	66342	76.9331632164	0.875
6888	66377	76.940544844087	1
6888	67355	77.740544844087	0.125
6888	67530	77.847704546913	0.875
6888	68548	78.553240419901	0.5
6888	69295	79.053240419901	0.5
6888	69592	79.255599330822	0.875
6888	70390	79.782439455386	0.875
6888	70917	80.182439455386	0.5
6888	71304	80.496107836356	0.75
6888	71801	80.905366000295	0.625
6888	71909	80.987567508697	0.625
6888	72036	81.091458985971	0.875
6888	72742	81.591458985971	0.5
6888	73237	81.998084992403	0.625
6888	73466	82.209572103304	0.875
6888	73491	82.269251095078	0.875
6888	73533	82.289870862427	-0.125
6888	73700	82.471274830424	0.875
6888	74683	83.38098122744	-0.125
6888	75052	83.690911887712	0.75
6888	75287	83.893458101516	0.75
6888	76392	84.693458101516	0.125
6888	76938	85.099499748853	0.5
6888	77319	85.399499748853	0.625
6888	77732	85.804216063247	0.625
6888	79064	86.912876444804	-0.25
6888	79600	87.321984413393	-1.125
6888	79625	87.328859322913	0.625
6888	79988	87.631994933871	0.625
6888	80360	87.931994933871	0.625
6888	81922	89.332989498119	-0.75
6888	82774	90.03318805777	0.25
6888	82971	90.174814319209	0.875
6888	83232	90.376421948807	0.875
6888	83851	90.936545023114	0
6888	84201	91.18429520818	0.125
6888	84436	91.385481631984	0.875
6888	84623	91.492539404011	0.875
6888	85795	92.492539404011	-0.125
6888	85979	92.653800598315	0.75
6888	86212	92.872258899764	0.875
6888	86446	93.072458899764	0.75
6888	86848	93.472458899764	0.625
6888	87531	94.081316335977	0.125
6888	87879	94.385010360251	0.625
6888	88494	94.985010360251	0.375
6888	89312	95.697140624935	0.5
6888	89474	95.787189506664	-0.125
6888	89793	96.087554708697	0.75
6888	90069	96.288475816751	0.75
6888	90803	96.988475816751	0.25
6888	91018	97.199716536281	0.875
6888	91520	97.610900379797	0.625
6888	91527	97.611523946017	0.625
6888	91943	97.9173740874	0.75
6888	91945	97.917588156511	0.75
6888	92051	98.014082430775	0.75
6888	92280	98.21381988872	0.125
6888	92291	98.216039482208	0.625
6888	92626	98.416239482208	0.75
6888	93024	98.716239482208	0.75
6888	93509	99.120491905877	0.625
6888	93636	99.226812292963	0.75
6888	93907	99.424977757589	0.75
6888	94452	99.826976217701	0.25
6888	94479	99.82834634141	0.25
6888	95389	100.527162723021	0.25
6888	95998	100.95422313109	-0.5
6888	96150	101.133104431839	-1.25
6888	96301	101.231983259773	0.25
6888	96440	101.331613191894	-0.875
6888	96448	101.336407561238	-0.875
6888	96714	101.536544081793	0.625
6888	97941	102.636744081793	-0.5
6888	98743	103.336744081793	0.25
6888	99245	103.840683849102	0.5
6888	99761	104.353440308556	0.5
6888	99991	104.557363718949	0.75
6888	100233	104.757363718949	0.875
6888	100746	105.261603776	0.5
6888	101225	105.675674266174	0.625
6888	101285	105.719332072607	0.625
6888	101676	106.083939875447	0.625
6888	102346	106.594692560218	0.5
6888	102382	106.600766324288	0.5
6888	102572	106.7259402308	-0.5
6888	102732	106.898213137008	0.75
6888	103085	107.203982358909	0.625
6888	103327	107.403982358909	0.875
6888	103607	107.606640921741	0.875
6888	103629	107.609703793346	0.875
6888	103958	107.908962335214	0.75
6888	104237	108.122780149094	0.875
6888	104531	108.410417433816	0.125
6888	104884	108.711152437591	0.75
6888	104937	108.732233759158	0.75
6888	104945	108.732491790101	0.375
6888	105300	109.011320390436	0.75
6888	105441	109.112373893517	0.875
6888	106011	109.601335050532	0.75
6888	106305	109.801564890682	0.625
6888	107521	110.801564890682	-0.25
6888	107652	110.902531518272	0.875
6888	108999	111.940995237264	0.625
6888	109454	112.340995237264	0.625
6888	109744	112.558478236202	0.875
6888	110612	113.290518752648	0.25
6888	111456	113.899457821442	0.25
6888	112286	114.599457821442	0.25
6888	112796	115.106817558113	0.5
6888	113338	115.612544310286	0.25
6888	113845	116.112544310286	0.5
6888	114213	116.415824508694	0.75
6888	114644	116.763755650048	0.625
6888	114781	116.825146161479	0.625
6888	116573	118.23379521091	-1
6888	117305	118.83379521091	0.25
6888	117868	119.343189322622	0.5
6888	118648	120.046051689883	0.11111110448837
6888	119012	120.446051689883	0.625
6888	119420	120.846451409764	0.625
6888	119614	121.054152941407	0.75
6888	119806	121.254152941407	0.875
6888	120348	121.756751155896	0.5
6888	121013	122.256951155896	0.375
6888	121486	122.656951155896	0.625
6888	121762	122.857192069916	0.875
6888	122213	123.26523773147	0.625
6888	122822	123.76543773147	0.375
6888	123491	124.26543773147	0.5
6888	123746	124.471044463193	0.875
6888	124405	124.977959592562	0.375
6888	124754	125.277959592562	0.75
6888	125103	125.583194504334	0.75
6888	125533	125.917116601387	0.75
6888	125603	125.997877641751	0.5
6888	125960	126.298572430049	0.75
6888	126173	126.500337259941	0.875
6888	126295	126.607087031529	1
6888	126465	126.72456348931	0.125
6888	126550	126.807924591391	0.875
6888	126699	126.926449698978	0.875
6888	127440	127.642958672579	0.25
6888	127991	128.148346762593	0.25
6888	129604	129.448346762593	-0.75
6888	129625	129.454305379572	0.5
6888	130468	130.230238163834	0.25
6888	130858	130.630400601257	0.625
6888	131032	130.838692184006	0.875
6888	131587	131.34292060437	0.375
6888	133180	132.64292060437	-0.625
6888	133900	133.151379135743	0.375
6888	134223	133.360861428788	0.88888888806105
6888	134856	133.861129377915	0.25
6888	135777	134.661129377915	0
6889	28	20.0001	0
6889	344	20.4001	0.4
6889	761	21.00781722526	0.6
6889	865	21.108782369934	0.2
6889	1141	21.408195428927	0.8
6889	2275	22.208395428927	0.8
6889	2841	22.712864492211	0.5
6889	3707	23.517711596751	0.8
6889	4137	23.837964859358	0.3
6889	5137	24.65279903598	0.8
6889	5370	24.869566707025	0
6889	6466	25.869566707025	1
6889	6816	26.179761985643	0.3
6889	7589	26.979761985643	0.8
6889	8308	27.579961985643	0.6
6889	9452	28.679961985643	1.1
6889	10378	29.388140215042	0.7
6889	10668	29.619195258275	1
6889	10686	29.620598242035	0
6889	10922	29.820598242035	0.2
6889	11702	30.424906332514	0.6
6889	12708	31.225106332514	0.8
6889	13067	31.525106332514	0.3
6889	13624	32.030266972545	0.5
6889	13890	32.239569682958	0.2
6889	14101	32.443766450432	0.2
6889	14122	32.461326599828	0.2
6889	14761	33.063171891098	0.6
6889	15023	33.263171891098	0.2
6889	15382	33.57187557837	0.3
6889	15639	33.77187557837	0.2
6889	15855	33.982399653359	0.2
6889	16207	34.288980609348	0.3
6889	16966	34.893774715212	0.6
6889	17541	35.42582082988	0.5
6889	18056	35.927664787925	0.5
6889	18309	36.132752655923	0.2
6889	19038	36.701919551259	0.4
6889	19779	37.301919551259	0.6
6889	20070	37.505009608881	0.2
6889	20582	38.008791757475	0.5
6889	20797	38.21140611118	0.8
6889	20962	38.409146900917	0.4
6889	21278	38.712514926823	0.3
6889	21893	39.312514926823	0.6
6889	22573	39.912714926823	0.6
6889	22881	40.212714926823	0.3
6889	23552	40.716632814634	0.5
6889	24489	41.521409369615	0.8
6889	24645	41.624205458085	0.9
6889	24883	41.823117451815	0.3
6889	25463	42.324269825746	0.5
6889	25823	42.624269825746	0.3
6889	26364	43.131447335356	0.3
6889	27669	44.231447335356	1.1
6889	28894	45.131647335356	0.9
6889	29207	45.431647335356	0.3
6889	30147	46.348221383527	0.9
6889	30517	46.652084365777	0.3
6889	30702	46.789696938447	0.3
6889	30752	46.842957989852	0.3
6889	31031	47.045829658064	0.2
6889	31495	47.445829658064	0.4
6889	31853	47.754598907458	0.3
6889	32230	48.056932267234	0.3
6889	32252	48.071558793678	0.3
6889	32339	48.154889910709	0.6
6889	32547	48.280958005613	0.2
6889	32693	48.368151172632	0.3
6889	33170	48.673215190276	0.3
6889	34390	49.589358474115	0.6
6889	35013	50.089358474115	0.5
6889	35221	50.258880823542	0.3
6889	36241	51.165658197783	0.9
6889	36746	51.665658197783	0.5
6889	37243	52.066294603583	0.4
6889	37668	52.375007793432	0.3
6889	38243	52.875007793432	0.5
6889	38572	53.182328647024	0.3
6889	38616	53.215068233544	0.3
6889	39038	53.682955300929	0.5
6889	39291	53.887148701511	0.2
6889	39507	54.087148701511	0.2
6889	40299	54.691879774976	0.6
6889	41595	55.791879774976	1.1
6889	41810	55.998370657306	0.2
6889	42442	56.507306699067	0.5
6889	42833	56.813411274555	0.3
6889	44131	57.81660804915	1
6889	44949	58.51660804915	0.7
6889	45417	58.925651712573	0.4
6889	46642	60.025651712573	1.1
6889	47178	60.432703154631	0.4
6889	47365	60.625892877862	0.4
6889	48195	61.328863887024	0.7
6889	49667	62.728863887024	1.4
6889	50141	63.131533066784	0.4
6889	50926	63.840924989809	0.7
6889	51799	64.540924989809	0.7
6889	52248	64.944063809597	0.4
6889	53614	66.052116555242	1.1
6889	55097	67.144081519793	0.8
6889	55111	67.153276675854	1.1
6889	55331	67.352212069963	0.2
6889	55485	67.456853312707	0.1
6889	55920	67.856853312707	0.4
6889	56691	68.566593187431	0.7
6889	56719	68.593912781692	0.7
6889	57019	68.871877061736	0.3
6889	57230	69.081089873688	0.2
6889	57589	69.395794935625	0.8
6889	57901	69.681841857367	0.6
6889	58025	69.78275568656	0.1
6889	58640	70.284386735996	0.5
6889	59043	70.588040773675	0.3
6889	59651	71.085989621177	0.3
6889	60568	71.885989621177	0.8
6889	61073	72.313357598341	0
6889	61310	72.513357598341	0.2
6889	61735	72.813557598341	0.3
6889	62565	73.513557598341	0.7
6889	63438	74.422179687865	0.9
6889	64077	74.931998625825	0.5
6889	64651	75.449599757776	0.5
6889	65230	75.949799757776	0.5
6889	65937	76.552002215007	0.6
6889	66342	76.9331632164	0.2
6889	66377	76.940544844087	0
6889	67355	77.740544844087	0.8
6889	67530	77.847704546913	0.1
6889	68548	78.553240419901	0.4
6889	69295	79.053240419901	0.5
6889	69592	79.255599330822	0.2
6889	70390	79.782439455386	0.1
6889	70917	80.182439455386	0.4
6889	71304	80.496107836356	0.3
6889	71801	80.905366000295	0.4
6889	71909	80.987567508697	0.4
6889	72036	81.091458985971	0.1
6889	72742	81.591458985971	0.5
6889	73237	81.998084992403	0.4
6889	73466	82.209572103304	0.2
6889	73491	82.269251095078	0.2
6889	73533	82.289870862427	1
6889	73700	82.471274830424	0.2
6889	74683	83.38098122744	0.9
6889	75052	83.690911887712	0.3
6889	75287	83.893458101516	0.2
6889	76392	84.693458101516	0.8
6889	76938	85.099499748853	0.4
6889	77319	85.399499748853	0.3
6889	77732	85.804216063247	0.4
6889	79064	86.912876444804	1.1
6889	79600	87.321984413393	1.7
6889	79625	87.328859322913	0.4
6889	79988	87.631994933871	0.3
6889	80360	87.931994933871	0.3
6889	81922	89.332989498119	1.4
6889	82774	90.03318805777	0.7
6889	82971	90.174814319209	0.2
6889	83232	90.376421948807	0.2
6889	83851	90.936545023114	0.9
6889	84201	91.18429520818	0.8
6889	84436	91.385481631984	0.2
6889	84623	91.492539404011	0.1
6889	85795	92.492539404011	1
6889	85979	92.653800598315	0.3
6889	86212	92.872258899764	0.2
6889	86446	93.072458899764	0.2
6889	86848	93.472458899764	0.4
6889	87531	94.081316335977	0.7
6889	87879	94.385010360251	0.3
6889	88494	94.985010360251	0.6
6889	89312	95.697140624935	0.5
6889	89474	95.787189506664	0.8
6889	89793	96.087554708697	0.3
6889	90069	96.288475816751	0.2
6889	90803	96.988475816751	0.7
6889	91018	97.199716536281	0.2
6889	91520	97.610900379797	0.4
6889	91527	97.611523946017	0.4
6889	91943	97.9173740874	0.3
6889	91945	97.917588156511	0.3
6889	92051	98.014082430775	0.3
6889	92280	98.21381988872	0.7
6889	92291	98.216039482208	0.4
6889	92626	98.416239482208	0.2
6889	93024	98.716239482208	0.3
6889	93509	99.120491905877	0.4
6889	93636	99.226812292963	0.3
6889	93907	99.424977757589	0.3
6889	94452	99.826976217701	0.6
6889	94479	99.82834634141	0.6
6889	95389	100.527162723021	0.7
6889	95998	100.95422313109	1.2
6889	96150	101.133104431839	1.7