version 2
run Stability-138-20130526-18:56:28-1898
attr configname Stability
attr datetime 20130526-18:56:28
attr experiment Stability
attr inifile omnetpp.ini
attr iterationvars $0=1e-7
attr iterationvars2 "$0=1e-7, $repetition=8"
attr measurement $0=1e-7
attr network Network
attr processid 1898
attr repetition 8
attr replication #8
attr resultdir results
attr runnumber 138
attr seedset 138

vector 13482  Network.churner  inGoingSizeSig:vector  ETV
vector 13386  Network.dyn_peer[0]  lookupHopsSig:vector  ETV
vector 13387  Network.dyn_peer[0]  lookupStabilitySig:vector  ETV
vector 13388  Network.dyn_peer[0]  lookupTimeSig:vector  ETV
vector 13401  Network.dyn_peer[5]  lookupHopsSig:vector  ETV
vector 13402  Network.dyn_peer[5]  lookupStabilitySig:vector  ETV
vector 13403  Network.dyn_peer[5]  lookupTimeSig:vector  ETV
vector 13437  Network.dyn_peer[17]  lookupHopsSig:vector  ETV
vector 13438  Network.dyn_peer[17]  lookupStabilitySig:vector  ETV
vector 13439  Network.dyn_peer[17]  lookupTimeSig:vector  ETV
vector 13395  Network.dyn_peer[3]  lookupHopsSig:vector  ETV
vector 13396  Network.dyn_peer[3]  lookupStabilitySig:vector  ETV
vector 13397  Network.dyn_peer[3]  lookupTimeSig:vector  ETV
vector 13404  Network.dyn_peer[6]  lookupHopsSig:vector  ETV
vector 13405  Network.dyn_peer[6]  lookupStabilitySig:vector  ETV
vector 13406  Network.dyn_peer[6]  lookupTimeSig:vector  ETV
vector 13413  Network.dyn_peer[9]  lookupHopsSig:vector  ETV
vector 13414  Network.dyn_peer[9]  lookupStabilitySig:vector  ETV
vector 13415  Network.dyn_peer[9]  lookupTimeSig:vector  ETV
vector 13422  Network.dyn_peer[12]  lookupHopsSig:vector  ETV
vector 13423  Network.dyn_peer[12]  lookupStabilitySig:vector  ETV
vector 13424  Network.dyn_peer[12]  lookupTimeSig:vector  ETV
vector 13431  Network.dyn_peer[15]  lookupHopsSig:vector  ETV
vector 13432  Network.dyn_peer[15]  lookupStabilitySig:vector  ETV
vector 13433  Network.dyn_peer[15]  lookupTimeSig:vector  ETV
vector 13443  Network.dyn_peer[19]  lookupHopsSig:vector  ETV
vector 13444  Network.dyn_peer[19]  lookupStabilitySig:vector  ETV
vector 13445  Network.dyn_peer[19]  lookupTimeSig:vector  ETV
vector 13452  Network.dyn_peer[22]  lookupHopsSig:vector  ETV
vector 13453  Network.dyn_peer[22]  lookupStabilitySig:vector  ETV
vector 13454  Network.dyn_peer[22]  lookupTimeSig:vector  ETV
vector 13389  Network.dyn_peer[1]  lookupHopsSig:vector  ETV
vector 13390  Network.dyn_peer[1]  lookupStabilitySig:vector  ETV
vector 13391  Network.dyn_peer[1]  lookupTimeSig:vector  ETV
vector 13392  Network.dyn_peer[2]  lookupHopsSig:vector  ETV
vector 13393  Network.dyn_peer[2]  lookupStabilitySig:vector  ETV
vector 13394  Network.dyn_peer[2]  lookupTimeSig:vector  ETV
vector 13419  Network.dyn_peer[11]  lookupHopsSig:vector  ETV
vector 13420  Network.dyn_peer[11]  lookupStabilitySig:vector  ETV
vector 13421  Network.dyn_peer[11]  lookupTimeSig:vector  ETV
vector 13425  Network.dyn_peer[13]  lookupHopsSig:vector  ETV
vector 13426  Network.dyn_peer[13]  lookupStabilitySig:vector  ETV
vector 13427  Network.dyn_peer[13]  lookupTimeSig:vector  ETV
vector 13446  Network.dyn_peer[20]  lookupHopsSig:vector  ETV
vector 13447  Network.dyn_peer[20]  lookupStabilitySig:vector  ETV
vector 13448  Network.dyn_peer[20]  lookupTimeSig:vector  ETV
vector 13455  Network.dyn_peer[23]  lookupHopsSig:vector  ETV
vector 13456  Network.dyn_peer[23]  lookupStabilitySig:vector  ETV
vector 13457  Network.dyn_peer[23]  lookupTimeSig:vector  ETV
vector 13461  Network.dyn_peer[25]  lookupHopsSig:vector  ETV
vector 13462  Network.dyn_peer[25]  lookupStabilitySig:vector  ETV
vector 13463  Network.dyn_peer[25]  lookupTimeSig:vector  ETV
vector 13467  Network.dyn_peer[27]  lookupHopsSig:vector  ETV
vector 13468  Network.dyn_peer[27]  lookupStabilitySig:vector  ETV
vector 13469  Network.dyn_peer[27]  lookupTimeSig:vector  ETV
vector 13470  Network.dyn_peer[28]  lookupHopsSig:vector  ETV
vector 13471  Network.dyn_peer[28]  lookupStabilitySig:vector  ETV
vector 13472  Network.dyn_peer[28]  lookupTimeSig:vector  ETV
vector 13479  Network.dyn_peer[31]  lookupHopsSig:vector  ETV
vector 13480  Network.dyn_peer[31]  lookupStabilitySig:vector  ETV
vector 13481  Network.dyn_peer[31]  lookupTimeSig:vector  ETV
vector 13398  Network.dyn_peer[4]  lookupHopsSig:vector  ETV
vector 13399  Network.dyn_peer[4]  lookupStabilitySig:vector  ETV
vector 13400  Network.dyn_peer[4]  lookupTimeSig:vector  ETV
vector 13428  Network.dyn_peer[14]  lookupHopsSig:vector  ETV
vector 13429  Network.dyn_peer[14]  lookupStabilitySig:vector  ETV
vector 13430  Network.dyn_peer[14]  lookupTimeSig:vector  ETV
vector 13440  Network.dyn_peer[18]  lookupHopsSig:vector  ETV
vector 13441  Network.dyn_peer[18]  lookupStabilitySig:vector  ETV
vector 13442  Network.dyn_peer[18]  lookupTimeSig:vector  ETV
vector 13458  Network.dyn_peer[24]  lookupHopsSig:vector  ETV
vector 13459  Network.dyn_peer[24]  lookupStabilitySig:vector  ETV
vector 13460  Network.dyn_peer[24]  lookupTimeSig:vector  ETV
vector 13464  Network.dyn_peer[26]  lookupHopsSig:vector  ETV
vector 13465  Network.dyn_peer[26]  lookupStabilitySig:vector  ETV
vector 13466  Network.dyn_peer[26]  lookupTimeSig:vector  ETV
vector 13476  Network.dyn_peer[30]  lookupHopsSig:vector  ETV
vector 13477  Network.dyn_peer[30]  lookupStabilitySig:vector  ETV
vector 13478  Network.dyn_peer[30]  lookupTimeSig:vector  ETV
vector 13407  Network.dyn_peer[7]  lookupHopsSig:vector  ETV
vector 13408  Network.dyn_peer[7]  lookupStabilitySig:vector  ETV
vector 13409  Network.dyn_peer[7]  lookupTimeSig:vector  ETV
vector 13416  Network.dyn_peer[10]  lookupHopsSig:vector  ETV
vector 13417  Network.dyn_peer[10]  lookupStabilitySig:vector  ETV
vector 13418  Network.dyn_peer[10]  lookupTimeSig:vector  ETV
vector 13449  Network.dyn_peer[21]  lookupHopsSig:vector  ETV
vector 13450  Network.dyn_peer[21]  lookupStabilitySig:vector  ETV
vector 13451  Network.dyn_peer[21]  lookupTimeSig:vector  ETV
vector 13473  Network.dyn_peer[29]  lookupHopsSig:vector  ETV
vector 13474  Network.dyn_peer[29]  lookupStabilitySig:vector  ETV
vector 13475  Network.dyn_peer[29]  lookupTimeSig:vector  ETV
vector 13410  Network.dyn_peer[8]  lookupHopsSig:vector  ETV
vector 13411  Network.dyn_peer[8]  lookupStabilitySig:vector  ETV
vector 13412  Network.dyn_peer[8]  lookupTimeSig:vector  ETV
vector 13434  Network.dyn_peer[16]  lookupHopsSig:vector  ETV
vector 13435  Network.dyn_peer[16]  lookupStabilitySig:vector  ETV
vector 13436  Network.dyn_peer[16]  lookupTimeSig:vector  ETV
13386	30	20.0000000001	0
13386	373	20.404882370912	3
13386	615	20.813040628324	3
13386	946	21.213140628424	4
13386	1282	21.513140628424	2
13386	2544	22.714835661428	12
13386	2675	22.826240027627	10
13386	2899	23.027807750947	2
13386	3547	23.524626374579	9
13386	3549	23.524718410736	3
13386	3565	23.531006101354	6
13386	4118	23.932429962443	4
13386	4508	24.232429962443	2
13386	5476	25.041831217229	7
13386	5504	25.079671748872	7
13386	5902	25.353143826295	1
13386	6142	25.559931313405	1
13386	6176	25.58333977374	4
13386	6656	25.885085426724	2
13386	6675	25.891731294925	3
13386	6678	25.894813697639	3
13386	6680	25.897224993209	3
13386	6884	26.050448442315	12
13386	7140	26.257456699269	1
13386	7180	26.292555982627	3
13386	7330	26.40078691426	4
13386	7335	26.402041897582	4
13386	7339	26.403861843792	4
13386	9231	28.103961843892	18
13386	10007	28.903961843892	7
13386	10668	29.514458851282	5
13386	11199	30.014558851382	6
13386	11603	30.414558851382	3
13386	12475	31.217601910166	8
13386	13023	31.698872781215	8
13386	13177	31.822159955697	5
13386	13563	32.130378368901	3
13386	14010	32.530378368901	3
13386	15256	33.488129251023	6
13386	16291	34.257471100496	3
13386	16536	34.489789700686	10
13386	16719	34.633634171075	5
13386	17250	35.063166083291	7
13386	17330	35.099473145034	5
13386	17991	35.608643342857	6
13386	18999	36.408643342857	7
13386	19457	36.817305309278	3
13386	19599	36.923323045739	1
13386	20707	37.823323045739	8
13386	21699	38.632382298319	8
13386	22093	38.900028511615	2
13386	22352	39.138476868327	5
13386	22382	39.162029474476	5
13386	22717	39.382311231708	1
13386	22835	39.481964999871	13
13386	22983	39.584999646015	1
13386	23027	39.60944801037	6
13386	23200	39.739974396526	6
13386	23509	39.989344773409	4
13386	23516	39.991074387751	2
13386	23519	39.991873963995	3
13386	24355	40.491973964095	5
13386	24732	40.791973964095	2
13386	25031	40.99517523088	1
13386	25044	41.00058316717	1
13386	25909	41.710148015872	7
13386	26283	42.010148015872	2
13386	27348	43.010995793817	10
13386	27374	43.017251098153	10
13386	28104	43.624645800989	5
13386	28107	43.625289189111	5
13386	28682	44.12705696258	4
13386	28709	44.132967839749	4
13386	28995	44.430954271969	4
13386	29189	44.619408306033	2
13386	29442	44.829735528803	1
13386	29455	44.834866218839	6
13386	29461	44.835920490652	6
13386	29860	45.136020490752	3
13386	30253	45.436020490752	3
13386	30655	45.740992083657	2
13386	32117	46.841374622108	11
13386	32126	46.845112676754	10
13386	32919	47.546279036702	7
13386	32953	47.550931993769	7
13386	32961	47.552459194886	7
13386	33344	47.855769122859	4
13386	34302	48.655769122859	7
13386	34336	48.685426331718	6
13386	34357	48.689521079688	0
13386	34495	48.789521079688	0
13386	35708	49.795651119333	10
13386	36662	50.59857279883	8
13386	37278	51.09857279883	5
13386	37678	51.406909214155	2
13386	38205	51.823346282745	4
13386	38302	51.871940472005	1
13386	38610	52.15686271758	5
13386	38730	52.231530235771	3
13386	39264	52.57761397669	6
13386	39555	52.834549423091	6
13386	39595	52.864932384213	7
13386	40059	53.267441001412	4
13386	41677	54.767441001412	15
13386	41970	54.970751057801	1
13386	43169	55.982891463932	10
13386	43817	56.491565523325	4
13386	44296	56.899303563943	3
13386	44431	56.999687539893	1
13386	44910	57.406691620179	3
13386	45141	57.59499474418	3
13386	45379	57.796507537121	2
13386	45871	58.196507537121	3
13386	46184	58.497536921462	2
13386	46599	58.801708903345	3
13386	46726	58.877850636799	3
13386	47277	59.285382303736	7
13386	47283	59.287523376744	5
13386	47319	59.307091617402	3
13386	47838	59.695279182044	3
13386	49006	60.705182948971	12
13386	49307	61.005182948971	2
13386	49602	61.232398315472	2
13386	49985	61.536056268743	3
13386	50061	61.612176499529	5
13386	50625	62.015440611808	4
13386	51725	63.015440611808	9
13386	52329	63.619531089088	5
13386	52631	63.923582691489	2
13386	52925	64.117301515574	11
13386	53257	64.397441432679	2
13386	53438	64.526672010496	3
13386	53551	64.597991321087	1
13386	53555	64.600060458004	1
13386	54451	65.306508804843	8
13386	54636	65.506508804843	1
13386	55519	66.308965842934	7
13386	55630	66.435273733385	8
13386	56227	66.94453195558	5
13386	58343	68.557177533695	17
13386	58671	68.857177533695	3
13386	59052	69.283015448127	4
13386	59166	69.392217048408	1
13386	60197	70.292217048408	9
13386	60458	70.493146717249	2
13386	60609	70.594732098366	1
13386	60745	70.701906869197	3
13386	61180	70.989579825735	3
13386	61241	71.010021615228	2
13386	62043	71.517910329682	5
13386	62420	71.817910329682	3
13386	63211	72.422747948189	5
13386	63595	72.728732780072	3
13386	64271	73.436348867742	7
13386	64713	73.836348867742	3
13386	65290	74.345004104599	4
13386	66236	75.114969334645	5
13386	66330	75.152021503229	8
13386	66485	75.255306733431	1
13386	66895	75.555306733431	2
13386	67282	75.861658623361	3
13386	69374	77.437756453453	2
13386	70066	77.937756453453	5
13386	70351	78.144041025967	2
13386	70574	78.269692320815	1
13386	70694	78.362711401475	1
13386	71094	78.669119111797	4
13386	71458	78.969119111797	2
13386	71683	79.175329124374	1
13386	71860	79.353921491312	1
13386	73223	80.457084836607	11
13386	73540	80.657084836607	1
13386	74179	81.162391270027	5
13386	74392	81.370791580439	1
13386	75062	81.971324585391	6
13386	75217	82.087869615116	6
13386	75948	82.691296823927	7
13386	76207	82.872752541947	8
13386	76623	83.179173802124	2
13386	76760	83.291934623463	6
13386	78161	84.492577285294	13
13386	78750	84.992577285294	4
13386	78961	85.202378755079	1
13386	79474	85.67822773497	2
13386	80736	86.77832773507	11
13386	81060	87.07832773507	2
13386	81757	87.682587137069	5
13386	82067	87.882687137169	2
13386	82508	88.194659390791	2
13386	82522	88.194759390891	0
13386	82757	88.394759390891	1
13386	85400	90.520065971717	17
13386	85835	90.820065971717	2
13386	86153	91.025157766764	1
13386	86161	91.02732398118	1
13386	86675	91.430750313625	3
13386	86967	91.626604353345	5
13386	87465	91.939862778976	4
13386	87593	92.046170918658	2
13386	88160	92.455566745512	4
13386	88707	92.955566745512	5
13386	89561	93.759211936144	1
13386	89572	93.763386452451	7
13386	90255	94.264368326788	5
13386	90485	94.464368326788	1
13386	91020	94.972728691227	4
13386	91663	95.586187976272	5
13386	91832	95.754485515291	2
13386	92214	96.062339790456	2
13386	92361	96.174759581905	2
13386	92513	96.28633701282	8
13386	93840	97.295024104312	11
13386	94418	97.795024104312	4
13386	94618	98.000334419589	1
13386	94905	98.20582546427	1
13386	95035	98.284618829979	1
13386	95320	98.513876793778	2
13386	95669	98.790503723238	5
13386	96125	99.12495756976	5
13386	96481	99.419352811295	4
13386	97721	100.421469223903	10
13386	98353	101.021469223903	5
13386	99059	101.625328452336	5
13386	99326	101.827544143509	1
13386	99396	101.851808560723	1
13386	99442	101.921730823657	6
13386	99832	102.229258609432	4
13386	100184	102.529258609432	2
13386	100943	103.136580288122	6
13386	101494	103.644636059576	3
13386	101709	103.836580288122	7
13386	101878	103.958312960247	2
13386	101961	104.038193043559	1
13386	102429	104.338293043659	4
13386	102875	104.638293043659	2
13386	103134	104.845278998545	2
13386	103900	105.445278998545	7
13386	104680	106.150094632342	6
13386	104909	106.355775772711	1
13386	105290	106.662227366464	2
13386	105841	107.065633265676	4
13386	106423	107.565633265676	4
13386	106827	107.874007902254	3
13386	108156	108.874007902254	10
13386	108965	109.37582280309	4
13386	109413	109.784376463406	3
13386	109677	109.989387591599	2
13386	110227	110.589387591599	5
13386	110385	110.698908920778	1
13386	111245	111.298908920778	5
13386	111269	111.303585339742	5
13386	111681	111.608112897729	3
13386	113102	112.808112897729	11
13386	113478	113.210178891814	3
13386	113567	113.297584649033	3
13386	113942	113.706589958071	4
13386	114199	113.906589958071	2
13386	114585	114.214995791023	2
13386	114928	114.523446728659	2
13386	114997	114.584051420926	2
13386	115363	114.88776521908	3
13386	117022	116.28776521908	13
13386	117282	116.500162040119	1
13386	117688	116.810123295238	2
13386	117704	116.829004032273	2
13386	117979	117.034600661262	2
13386	118637	117.634600661262	5
13386	119402	118.236096833234	5
13386	119770	118.479783851225	9
13386	120098	118.740365573894	4
13386	120400	118.980190470381	4
13386	120425	119.039818334304	4
13386	121305	119.646515432369	7
13386	122117	120.346515432369	7
13386	122894	120.983277118557	4
13386	123280	121.249564927822	9
13386	123704	121.554231745671	3
13386	124505	122.157762390377	5
13386	124747	122.366963740109	2
13386	125559	123.066963740109	6
13386	125778	123.270289179802	1
13386	125925	123.419212369984	3
13386	126228	123.675614958173	4
13386	126264	123.720241956505	2
13386	126361	123.81777763746	1
13386	126464	123.882848099689	1
13386	126485	123.920191601349	1
13386	126555	123.977566025122	2
13386	126588	124.022509598961	3
13386	126708	124.132269017168	1
13386	127024	124.432269017168	2
13386	127607	124.933798953683	4
13386	127848	125.144386870062	1
13386	128535	125.751369896579	6
13386	129695	126.651369896579	8
13386	130054	126.951565072265	2
13386	131056	127.860413281576	8
13386	131563	128.269579308653	3
13386	131939	128.542861979465	3
13386	131977	128.575314193973	2
13386	132277	128.843632348835	3
13386	132762	129.349513066309	6
13386	133427	129.949513066309	5
13386	134844	131.265717195592	12
13386	134975	131.375066079146	0
13386	135150	131.579803231928	1
13386	135451	131.784095279393	3
13386	136141	132.484095279393	6
13386	136446	132.792482340105	2
13386	136554	132.968282155478	2
13386	136655	133.101426106684	2
13386	136707	133.26903046647	2
13387	30	20.0000000001	1
13387	373	20.404882370912	0.625
13387	615	20.813040628324	0.625
13387	946	21.213140628424	0.5
13387	1282	21.513140628424	0.75
13387	2544	22.714835661428	-0.5
13387	2675	22.826240027627	-0.25
13387	2899	23.027807750947	0.75
13387	3547	23.524626374579	-0.125
13387	3549	23.524718410736	0.625
13387	3565	23.531006101354	0.25
13387	4118	23.932429962443	0.5
13387	4508	24.232429962443	0.75
13387	5476	25.041831217229	0.125
13387	5504	25.079671748872	0.125
13387	5902	25.353143826295	0.875
13387	6142	25.559931313405	0.875
13387	6176	25.58333977374	0.5
13387	6656	25.885085426724	0.75
13387	6675	25.891731294925	0.625
13387	6678	25.894813697639	0.625
13387	6680	25.897224993209	0.625
13387	6884	26.050448442315	-0.5
13387	7140	26.257456699269	0.875
13387	7180	26.292555982627	0.625
13387	7330	26.40078691426	0.5
13387	7335	26.402041897582	0.5
13387	7339	26.403861843792	0.5
13387	9231	28.103961843892	-1.25
13387	10007	28.903961843892	0.125
13387	10668	29.514458851282	0.375
13387	11199	30.014558851382	0.25
13387	11603	30.414558851382	0.625
13387	12475	31.217601910166	0
13387	13023	31.698872781215	0
13387	13177	31.822159955697	0.375
13387	13563	32.130378368901	0.625
13387	14010	32.530378368901	0.625
13387	15256	33.488129251023	0.25
13387	16291	34.257471100496	0.66666665673256
13387	16536	34.489789700686	-0.25
13387	16719	34.633634171075	0.375
13387	17250	35.063166083291	0.125
13387	17330	35.099473145034	0.375
13387	17991	35.608643342857	0.25
13387	18999	36.408643342857	0.125
13387	19457	36.817305309278	0.625
13387	19599	36.923323045739	0.875
13387	20707	37.823323045739	0
13387	21699	38.632382298319	0
13387	22093	38.900028511615	0.75
13387	22352	39.138476868327	0.375
13387	22382	39.162029474476	0.375
13387	22717	39.382311231708	0.875
13387	22835	39.481964999871	-0.625
13387	22983	39.584999646015	0.875
13387	23027	39.60944801037	0.25
13387	23200	39.739974396526	0.25
13387	23509	39.989344773409	0.5
13387	23516	39.991074387751	0.75
13387	23519	39.991873963995	0.625
13387	24355	40.491973964095	0.375
13387	24732	40.791973964095	0.75
13387	25031	40.99517523088	0.875
13387	25044	41.00058316717	0.875
13387	25909	41.710148015872	0.125
13387	26283	42.010148015872	0.75
13387	27348	43.010995793817	-0.25
13387	27374	43.017251098153	-0.25
13387	28104	43.624645800989	0.375
13387	28107	43.625289189111	0.375
13387	28682	44.12705696258	0.5
13387	28709	44.132967839749	0.5
13387	28995	44.430954271969	0.5
13387	29189	44.619408306033	0.75
13387	29442	44.829735528803	0.875
13387	29455	44.834866218839	0.25
13387	29461	44.835920490652	0.25
13387	29860	45.136020490752	0.625
13387	30253	45.436020490752	0.625
13387	30655	45.740992083657	0.75
13387	32117	46.841374622108	-0.375
13387	32126	46.845112676754	-0.25
13387	32919	47.546279036702	0.125
13387	32953	47.550931993769	0.125
13387	32961	47.552459194886	0.125
13387	33344	47.855769122859	0.5
13387	34302	48.655769122859	0.125
13387	34336	48.685426331718	0.25
13387	34357	48.689521079688	1
13387	34495	48.789521079688	1
13387	35708	49.795651119333	-0.25
13387	36662	50.59857279883	0
13387	37278	51.09857279883	0.375
13387	37678	51.406909214155	0.75
13387	38205	51.823346282745	0.5
13387	38302	51.871940472005	0.875
13387	38610	52.15686271758	0.375
13387	38730	52.231530235771	0.625
13387	39264	52.57761397669	0.25
13387	39555	52.834549423091	0.25
13387	39595	52.864932384213	0.125
13387	40059	53.267441001412	0.5
13387	41677	54.767441001412	-0.875
13387	41970	54.970751057801	0.875
13387	43169	55.982891463932	-0.25
13387	43817	56.491565523325	0.5
13387	44296	56.899303563943	0.625
13387	44431	56.999687539893	0.875
13387	44910	57.406691620179	0.625
13387	45141	57.59499474418	0.625
13387	45379	57.796507537121	0.75
13387	45871	58.196507537121	0.625
13387	46184	58.497536921462	0.75
13387	46599	58.801708903345	0.625
13387	46726	58.877850636799	0.625
13387	47277	59.285382303736	0.125
13387	47283	59.287523376744	0.375
13387	47319	59.307091617402	0.625
13387	47838	59.695279182044	0.625
13387	49006	60.705182948971	-0.5
13387	49307	61.005182948971	0.75
13387	49602	61.232398315472	0.75
13387	49985	61.536056268743	0.66666665673256
13387	50061	61.612176499529	0.375
13387	50625	62.015440611808	0.5
13387	51725	63.015440611808	-0.125
13387	52329	63.619531089088	0.375
13387	52631	63.923582691489	0.75
13387	52925	64.117301515574	-0.375
13387	53257	64.397441432679	0.77777777612209
13387	53438	64.526672010496	0.625
13387	53551	64.597991321087	0.875
13387	53555	64.600060458004	0.875
13387	54451	65.306508804843	0
13387	54636	65.506508804843	0.875
13387	55519	66.308965842934	0.125
13387	55630	66.435273733385	0
13387	56227	66.94453195558	0.375
13387	58343	68.557177533695	-1.125
13387	58671	68.857177533695	0.625
13387	59052	69.283015448127	0.5
13387	59166	69.392217048408	0.875
13387	60197	70.292217048408	-0.125
13387	60458	70.493146717249	0.75
13387	60609	70.594732098366	0.875
13387	60745	70.701906869197	0.625
13387	61180	70.989579825735	0.625
13387	61241	71.010021615228	0.75
13387	62043	71.517910329682	0.375
13387	62420	71.817910329682	0.625
13387	63211	72.422747948189	0.375
13387	63595	72.728732780072	0.625
13387	64271	73.436348867742	0.125
13387	64713	73.836348867742	0.625
13387	65290	74.345004104599	0.5
13387	66236	75.114969334645	0.375
13387	66330	75.152021503229	0
13387	66485	75.255306733431	0.875
13387	66895	75.555306733431	0.75
13387	67282	75.861658623361	0.625
13387	69374	77.437756453453	0.75
13387	70066	77.937756453453	0.375
13387	70351	78.144041025967	0.75
13387	70574	78.269692320815	0.875
13387	70694	78.362711401475	0.875
13387	71094	78.669119111797	0.5
13387	71458	78.969119111797	0.75
13387	71683	79.175329124374	0.875
13387	71860	79.353921491312	0.875
13387	73223	80.457084836607	-0.375
13387	73540	80.657084836607	0.875
13387	74179	81.162391270027	0.375
13387	74392	81.370791580439	0.875
13387	75062	81.971324585391	0.25
13387	75217	82.087869615116	0.25
13387	75948	82.691296823927	0.125
13387	76207	82.872752541947	0
13387	76623	83.179173802124	0.75
13387	76760	83.291934623463	0.25
13387	78161	84.492577285294	-0.625
13387	78750	84.992577285294	0.5
13387	78961	85.202378755079	0.875
13387	79474	85.67822773497	0.75
13387	80736	86.77832773507	-0.375
13387	81060	87.07832773507	0.75
13387	81757	87.682587137069	0.375
13387	82067	87.882687137169	0.75
13387	82508	88.194659390791	0.75
13387	82522	88.194759390891	1
13387	82757	88.394759390891	0.875
13387	85400	90.520065971717	-1.125
13387	85835	90.820065971717	0.75
13387	86153	91.025157766764	0.875
13387	86161	91.02732398118	0.875
13387	86675	91.430750313625	0.625
13387	86967	91.626604353345	0.375
13387	87465	91.939862778976	0.5
13387	87593	92.046170918658	0.75
13387	88160	92.455566745512	0.5
13387	88707	92.955566745512	0.375
13387	89561	93.759211936144	0.875
13387	89572	93.763386452451	0.125
13387	90255	94.264368326788	0.375
13387	90485	94.464368326788	0.875
13387	91020	94.972728691227	0.5
13387	91663	95.586187976272	0.375
13387	91832	95.754485515291	0.75
13387	92214	96.062339790456	0.75
13387	92361	96.174759581905	0.75
13387	92513	96.28633701282	0
13387	93840	97.295024104312	-0.375
13387	94418	97.795024104312	0.5
13387	94618	98.000334419589	0.875
13387	94905	98.20582546427	0.875
13387	95035	98.284618829979	0.875
13387	95320	98.513876793778	0.75
13387	95669	98.790503723238	0.375
13387	96125	99.12495756976	0.375
13387	96481	99.419352811295	0.5
13387	97721	100.421469223903	-0.25
13387	98353	101.021469223903	0.375
13387	99059	101.625328452336	0.375
13387	99326	101.827544143509	0.875
13387	99396	101.851808560723	0.875
13387	99442	101.921730823657	0.25
13387	99832	102.229258609432	0.5
13387	100184	102.529258609432	0.75
13387	100943	103.136580288122	0.25
13387	101494	103.644636059576	0.625
13387	101709	103.836580288122	0.125
13387	101878	103.958312960247	0.75
13387	101961	104.038193043559	0.875
13387	102429	104.338293043659	0.5
13387	102875	104.638293043659	0.75
13387	103134	104.845278998545	0.75
13387	103900	105.445278998545	0.125
13387	104680	106.150094632342	0.25
13387	104909	106.355775772711	0.875
13387	105290	106.662227366464	0.75
13387	105841	107.065633265676	0.55555555224419
13387	106423	107.565633265676	0.5
13387	106827	107.874007902254	0.625
13387	108156	108.874007902254	-0.25
13387	108965	109.37582280309	0.5
13387	109413	109.784376463406	0.625
13387	109677	109.989387591599	0.75
13387	110227	110.589387591599	0.375
13387	110385	110.698908920778	0.875
13387	111245	111.298908920778	0.375
13387	111269	111.303585339742	0.375
13387	111681	111.608112897729	0.625
13387	113102	112.808112897729	-0.375
13387	113478	113.210178891814	0.625
13387	113567	113.297584649033	0.625
13387	113942	113.706589958071	0.5
13387	114199	113.906589958071	0.75
13387	114585	114.214995791023	0.75
13387	114928	114.523446728659	0.75
13387	114997	114.584051420926	0.75
13387	115363	114.88776521908	0.625
13387	117022	116.28776521908	-0.625
13387	117282	116.500162040119	0.875
13387	117688	116.810123295238	0.75
13387	117704	116.829004032273	0.75
13387	117979	117.034600661262	0.75
13387	118637	117.634600661262	0.375
13387	119402	118.236096833234	0.375
13387	119770	118.479783851225	-0.125
13387	120098	118.740365573894	0.5
13387	120400	118.980190470381	0.5
13387	120425	119.039818334304	0.5
13387	121305	119.646515432369	0.125
13387	122117	120.346515432369	0.125
13387	122894	120.983277118557	0.5
13387	123280	121.249564927822	-0.125
13387	123704	121.554231745671	0.625
13387	124505	122.157762390377	0.375
13387	124747	122.366963740109	0.75
13387	125559	123.066963740109	0.25
13387	125778	123.270289179802	0.875
13387	125925	123.419212369984	0.625
13387	126228	123.675614958173	0.5
13387	126264	123.720241956505	0.75
13387	126361	123.81777763746	0.875
13387	126464	123.882848099689	0.875
13387	126485	123.920191601349	0.875
13387	126555	123.977566025122	0.75
13387	126588	124.022509598961	0.625
13387	126708	124.132269017168	0.875
13387	127024	124.432269017168	0.75
13387	127607	124.933798953683	0.5
13387	127848	125.144386870062	0.875
13387	128535	125.751369896579	0.25
13387	129695	126.651369896579	0
13387	130054	126.951565072265	0.75
13387	131056	127.860413281576	0
13387	131563	128.269579308653	0.625
13387	131939	128.542861979465	0.625
13387	131977	128.575314193973	0.75
13387	132277	128.843632348835	0.625
13387	132762	129.349513066309	0.25
13387	133427	129.949513066309	0.375
13387	134844	131.265717195592	-0.5
13387	134975	131.375066079146	1
13387	135150	131.579803231928	0.875
13387	135451	131.784095279393	0.625
13387	136141	132.484095279393	0.25
13387	136446	132.792482340105	0.75
13387	136554	132.968282155478	0.75
13387	136655	133.101426106684	0.75
13387	136707	133.26903046647	0.75
13388	30	20.0000000001	0
13388	373	20.404882370912	0.4
13388	615	20.813040628324	0.4
13388	946	21.213140628424	0.4
13388	1282	21.513140628424	0.3
13388	2544	22.714835661428	1.2
13388	2675	22.826240027627	1
13388	2899	23.027807750947	0.2
13388	3547	23.524626374579	0.8
13388	3549	23.524718410736	0.4
13388	3565	23.531006101354	0.5
13388	4118	23.932429962443	0.4
13388	4508	24.232429962443	0.3
13388	5476	25.041831217229	0.8
13388	5504	25.079671748872	0.8
13388	5902	25.353143826295	0.2
13388	6142	25.559931313405	0.2
13388	6176	25.58333977374	0.5
13388	6656	25.885085426724	0.2
13388	6675	25.891731294925	0.3
13388	6678	25.894813697639	0.3
13388	6680	25.897224993209	0.3
13388	6884	26.050448442315	1
13388	7140	26.257456699269	0.2
13388	7180	26.292555982627	0.4
13388	7330	26.40078691426	0.5
13388	7335	26.402041897582	0.5
13388	7339	26.403861843792	0.5
13388	9231	28.103961843892	1.7
13388	10007	28.903961843892	0.8
13388	10668	29.514458851282	0.6
13388	11199	30.014558851382	0.5
13388	11603	30.414558851382	0.4
13388	12475	31.217601910166	0.8
13388	13023	31.698872781215	0.9
13388	13177	31.822159955697	0.6
13388	13563	32.130378368901	0.3
13388	14010	32.530378368901	0.4
13388	15256	33.488129251023	0.6
13388	16291	34.257471100496	0.3
13388	16536	34.489789700686	1
13388	16719	34.633634171075	0.6
13388	17250	35.063166083291	0.8
13388	17330	35.099473145034	0.6
13388	17991	35.608643342857	0.5
13388	18999	36.408643342857	0.8
13388	19457	36.817305309278	0.4
13388	19599	36.923323045739	0.1
13388	20707	37.823323045739	0.9
13388	21699	38.632382298319	0.8
13388	22093	38.900028511615	0.3
13388	22352	39.138476868327	0.5
13388	22382	39.162029474476	0.5
13388	22717	39.382311231708	0.2
13388	22835	39.481964999871	1.2
13388	22983	39.584999646015	0.2
13388	23027	39.60944801037	0.7
13388	23200	39.739974396526	0.6
13388	23509	39.989344773409	0.5
13388	23516	39.991074387751	0.3
13388	23519	39.991873963995	0.4
13388	24355	40.491973964095	0.5
13388	24732	40.791973964095	0.3
13388	25031	40.99517523088	0.2
13388	25044	41.00058316717	0.2
13388	25909	41.710148015872	0.7
13388	26283	42.010148015872	0.3
13388	27348	43.010995793817	1
13388	27374	43.017251098153	1
13388	28104	43.624645800989	0.6
13388	28107	43.625289189111	0.6
13388	28682	44.12705696258	0.5
13388	28709	44.132967839749	0.5
13388	28995	44.430954271969	0.5
13388	29189	44.619408306033	0.2
13388	29442	44.829735528803	0.2
13388	29455	44.834866218839	0.7
13388	29461	44.835920490652	0.7
13388	29860	45.136020490752	0.3
13388	30253	45.436020490752	0.3
13388	30655	45.740992083657	0.3
13388	32117	46.841374622108	1.1
13388	32126	46.845112676754	0.9
13388	32919	47.546279036702	0.7
13388	32953	47.550931993769	0.7
13388	32961	47.552459194886	0.7
13388	33344	47.855769122859	0.3
13388	34302	48.655769122859	0.8
13388	34336	48.685426331718	0.6
13388	34357	48.689521079688	0
13388	34495	48.789521079688	0.1
13388	35708	49.795651119333	1
13388	36662	50.59857279883	0.8
13388	37278	51.09857279883	0.5
13388	37678	51.406909214155	0.3
13388	38205	51.823346282745	0.4
13388	38302	51.871940472005	0.2
13388	38610	52.15686271758	0.6
13388	38730	52.231530235771	0.4
13388	39264	52.57761397669	0.7
13388	39555	52.834549423091	0.6
13388	39595	52.864932384213	0.7
13388	40059	53.267441001412	0.4
13388	41677	54.767441001412	1.5
13388	41970	54.970751057801	0.2
13388	43169	55.982891463932	1
13388	43817	56.491565523325	0.5
13388	44296	56.899303563943	0.4