version 2
run Stability-104-20130526-18:54:05-1898
attr configname Stability
attr datetime 20130526-18:54:05
attr experiment Stability
attr inifile omnetpp.ini
attr iterationvars $0=1e-4
attr iterationvars2 "$0=1e-4, $repetition=4"
attr measurement $0=1e-4
attr network Network
attr processid 1898
attr repetition 4
attr replication #4
attr resultdir results
attr runnumber 104
attr seedset 104

vector 10184  Network.churner  inGoingSizeSig:vector  ETV
vector 10157  Network.dyn_peer[23]  lookupHopsSig:vector  ETV
vector 10158  Network.dyn_peer[23]  lookupStabilitySig:vector  ETV
vector 10159  Network.dyn_peer[23]  lookupTimeSig:vector  ETV
vector 10091  Network.dyn_peer[1]  lookupHopsSig:vector  ETV
vector 10092  Network.dyn_peer[1]  lookupStabilitySig:vector  ETV
vector 10093  Network.dyn_peer[1]  lookupTimeSig:vector  ETV
vector 10100  Network.dyn_peer[4]  lookupHopsSig:vector  ETV
vector 10101  Network.dyn_peer[4]  lookupStabilitySig:vector  ETV
vector 10102  Network.dyn_peer[4]  lookupTimeSig:vector  ETV
vector 10106  Network.dyn_peer[6]  lookupHopsSig:vector  ETV
vector 10107  Network.dyn_peer[6]  lookupStabilitySig:vector  ETV
vector 10108  Network.dyn_peer[6]  lookupTimeSig:vector  ETV
vector 10118  Network.dyn_peer[10]  lookupHopsSig:vector  ETV
vector 10119  Network.dyn_peer[10]  lookupStabilitySig:vector  ETV
vector 10120  Network.dyn_peer[10]  lookupTimeSig:vector  ETV
vector 10130  Network.dyn_peer[14]  lookupHopsSig:vector  ETV
vector 10131  Network.dyn_peer[14]  lookupStabilitySig:vector  ETV
vector 10132  Network.dyn_peer[14]  lookupTimeSig:vector  ETV
vector 10145  Network.dyn_peer[19]  lookupHopsSig:vector  ETV
vector 10146  Network.dyn_peer[19]  lookupStabilitySig:vector  ETV
vector 10147  Network.dyn_peer[19]  lookupTimeSig:vector  ETV
vector 10154  Network.dyn_peer[22]  lookupHopsSig:vector  ETV
vector 10155  Network.dyn_peer[22]  lookupStabilitySig:vector  ETV
vector 10156  Network.dyn_peer[22]  lookupTimeSig:vector  ETV
vector 10163  Network.dyn_peer[25]  lookupHopsSig:vector  ETV
vector 10164  Network.dyn_peer[25]  lookupStabilitySig:vector  ETV
vector 10165  Network.dyn_peer[25]  lookupTimeSig:vector  ETV
vector 10169  Network.dyn_peer[27]  lookupHopsSig:vector  ETV
vector 10170  Network.dyn_peer[27]  lookupStabilitySig:vector  ETV
vector 10171  Network.dyn_peer[27]  lookupTimeSig:vector  ETV
vector 10088  Network.dyn_peer[0]  lookupHopsSig:vector  ETV
vector 10089  Network.dyn_peer[0]  lookupStabilitySig:vector  ETV
vector 10090  Network.dyn_peer[0]  lookupTimeSig:vector  ETV
vector 10103  Network.dyn_peer[5]  lookupHopsSig:vector  ETV
vector 10104  Network.dyn_peer[5]  lookupStabilitySig:vector  ETV
vector 10105  Network.dyn_peer[5]  lookupTimeSig:vector  ETV
vector 10124  Network.dyn_peer[12]  lookupHopsSig:vector  ETV
vector 10125  Network.dyn_peer[12]  lookupStabilitySig:vector  ETV
vector 10126  Network.dyn_peer[12]  lookupTimeSig:vector  ETV
vector 10127  Network.dyn_peer[13]  lookupHopsSig:vector  ETV
vector 10128  Network.dyn_peer[13]  lookupStabilitySig:vector  ETV
vector 10129  Network.dyn_peer[13]  lookupTimeSig:vector  ETV
vector 10133  Network.dyn_peer[15]  lookupHopsSig:vector  ETV
vector 10134  Network.dyn_peer[15]  lookupStabilitySig:vector  ETV
vector 10135  Network.dyn_peer[15]  lookupTimeSig:vector  ETV
vector 10175  Network.dyn_peer[29]  lookupHopsSig:vector  ETV
vector 10176  Network.dyn_peer[29]  lookupStabilitySig:vector  ETV
vector 10177  Network.dyn_peer[29]  lookupTimeSig:vector  ETV
vector 10094  Network.dyn_peer[2]  lookupHopsSig:vector  ETV
vector 10095  Network.dyn_peer[2]  lookupStabilitySig:vector  ETV
vector 10096  Network.dyn_peer[2]  lookupTimeSig:vector  ETV
vector 10109  Network.dyn_peer[7]  lookupHopsSig:vector  ETV
vector 10110  Network.dyn_peer[7]  lookupStabilitySig:vector  ETV
vector 10111  Network.dyn_peer[7]  lookupTimeSig:vector  ETV
vector 10112  Network.dyn_peer[8]  lookupHopsSig:vector  ETV
vector 10113  Network.dyn_peer[8]  lookupStabilitySig:vector  ETV
vector 10114  Network.dyn_peer[8]  lookupTimeSig:vector  ETV
vector 10115  Network.dyn_peer[9]  lookupHopsSig:vector  ETV
vector 10116  Network.dyn_peer[9]  lookupStabilitySig:vector  ETV
vector 10117  Network.dyn_peer[9]  lookupTimeSig:vector  ETV
vector 10121  Network.dyn_peer[11]  lookupHopsSig:vector  ETV
vector 10122  Network.dyn_peer[11]  lookupStabilitySig:vector  ETV
vector 10123  Network.dyn_peer[11]  lookupTimeSig:vector  ETV
vector 10139  Network.dyn_peer[17]  lookupHopsSig:vector  ETV
vector 10140  Network.dyn_peer[17]  lookupStabilitySig:vector  ETV
vector 10141  Network.dyn_peer[17]  lookupTimeSig:vector  ETV
vector 10151  Network.dyn_peer[21]  lookupHopsSig:vector  ETV
vector 10152  Network.dyn_peer[21]  lookupStabilitySig:vector  ETV
vector 10153  Network.dyn_peer[21]  lookupTimeSig:vector  ETV
vector 10166  Network.dyn_peer[26]  lookupHopsSig:vector  ETV
vector 10167  Network.dyn_peer[26]  lookupStabilitySig:vector  ETV
vector 10168  Network.dyn_peer[26]  lookupTimeSig:vector  ETV
vector 10172  Network.dyn_peer[28]  lookupHopsSig:vector  ETV
vector 10173  Network.dyn_peer[28]  lookupStabilitySig:vector  ETV
vector 10174  Network.dyn_peer[28]  lookupTimeSig:vector  ETV
vector 10178  Network.dyn_peer[30]  lookupHopsSig:vector  ETV
vector 10179  Network.dyn_peer[30]  lookupStabilitySig:vector  ETV
vector 10180  Network.dyn_peer[30]  lookupTimeSig:vector  ETV
vector 10181  Network.dyn_peer[31]  lookupHopsSig:vector  ETV
vector 10182  Network.dyn_peer[31]  lookupStabilitySig:vector  ETV
vector 10183  Network.dyn_peer[31]  lookupTimeSig:vector  ETV
vector 10097  Network.dyn_peer[3]  lookupHopsSig:vector  ETV
vector 10098  Network.dyn_peer[3]  lookupStabilitySig:vector  ETV
vector 10099  Network.dyn_peer[3]  lookupTimeSig:vector  ETV
vector 10136  Network.dyn_peer[16]  lookupHopsSig:vector  ETV
vector 10137  Network.dyn_peer[16]  lookupStabilitySig:vector  ETV
vector 10138  Network.dyn_peer[16]  lookupTimeSig:vector  ETV
vector 10148  Network.dyn_peer[20]  lookupHopsSig:vector  ETV
vector 10149  Network.dyn_peer[20]  lookupStabilitySig:vector  ETV
vector 10150  Network.dyn_peer[20]  lookupTimeSig:vector  ETV
vector 10142  Network.dyn_peer[18]  lookupHopsSig:vector  ETV
vector 10143  Network.dyn_peer[18]  lookupStabilitySig:vector  ETV
vector 10144  Network.dyn_peer[18]  lookupTimeSig:vector  ETV
vector 10160  Network.dyn_peer[24]  lookupHopsSig:vector  ETV
vector 10161  Network.dyn_peer[24]  lookupStabilitySig:vector  ETV
vector 10162  Network.dyn_peer[24]  lookupTimeSig:vector  ETV
10088	197	20.2000001	2
10088	522	20.8000001	5
10088	765	21.103341953816	2
10088	1247	21.603442053816	6
10088	1439	21.803442053816	2
10088	2600	22.804786397048	10
10088	3092	23.216180824995	3
10088	3368	23.518281337596	3
10088	3544	23.717172461175	4
10088	3772	23.921929775423	3
10088	4031	24.127008473076	2
10088	4394	24.427008473076	2
10088	5341	25.226001838231	1
10088	5907	25.726001838231	4
10088	6208	25.926869226344	1
10088	7122	26.736215490358	7
10088	7763	27.347942718993	14
10088	8032	27.556030356929	1
10088	8759	28.217372661175	19
10088	9150	28.523453840661	3
10088	9551	28.823453840661	2
10088	10250	29.432801935838	5
10088	10498	29.640038228183	1
10088	10559	29.700291143775	1
10088	11967	30.805052690312	11
10088	12773	31.405052690312	6
10088	13603	32.114516446359	7
10088	13740	32.244653937692	6
10088	14047	32.514731964554	3
10088	14111	32.550212864462	2
10088	14447	32.849061357865	1
10088	14556	32.955212867172	4
10088	14586	33.01620452877	4
10088	14765	33.155239049809	1
10088	14768	33.15673810653	2
10088	15059	33.35683820653	2
10088	15618	33.75683820653	3
10088	15775	33.92558454339	3
10088	15866	33.956913535718	1
10088	16604	34.557571043461	6
10088	17501	35.257571043461	6
10088	18322	35.862353538871	5
10088	18810	36.365488191591	8
10088	19256	36.77065324121	4
10088	19525	37.07065324121	2
10088	19810	37.370936832587	2
10088	19975	37.574392107378	1
10088	20222	37.878464795718	1
10088	20231	37.883391864578	3
10088	20398	38.081964311717	1
10088	21037	38.58984270209	6
10088	21121	38.683320898454	7
10088	22217	39.692259434324	10
10088	22693	40.092259434324	4
10088	23073	40.400681950661	2
10088	23114	40.454321277576	2
10088	23263	40.55903461708	1
10088	23491	40.75903461708	1
10088	23627	40.860521830332	0
10088	24183	41.260621930332	4
10088	24756	41.760621930332	4
10088	25253	42.170383939101	4
10088	25913	42.698163686791	5
10088	26037	42.771005827349	5
10088	26315	42.980282168814	1
10088	26323	42.983382068657	1
10088	27628	43.988915573109	13
10088	28480	44.728463462283	6
10088	29107	45.238350523702	4
10088	29648	45.647485904454	3
10088	29862	45.848271066423	2
10088	30298	46.152056581726	4
10088	31229	46.87809843531	5
10088	31263	46.936887560382	3
10088	31294	46.938509196442	0
10088	31877	47.438509196442	4
10088	32574	48.151556214899	6
10088	32895	48.460575639094	2
10088	32976	48.548986716015	2
10088	33485	48.949723010037	4
10088	34395	49.649723010037	6
10088	35201	50.167511051449	5
10088	35848	50.667511051449	4
10088	36222	50.972159188137	2
10088	36234	50.976461493291	2
10088	36550	51.278161289564	2
10088	36775	51.478261389564	2
10088	37237	51.878261389564	4
10088	37738	52.280152200137	4
10088	38368	52.880152200137	5
10088	38692	53.19058353562	2
10088	39035	53.499842762549	2
10088	39275	53.705097726595	1
10088	39409	53.849097676149	6
10088	39681	54.05793727618	2
10088	40410	54.655353846895	2
10088	40976	55.155353846895	4
10088	41244	55.361902985216	2
10088	41996	55.962196388674	6
10088	42218	56.157826559633	8
10088	42636	56.465412446032	12
10088	43029	56.772277781711	3
10088	43128	56.834588301788	2
10088	43161	56.862091954598	8
10088	43204	56.91258121415	6
10088	43462	57.115606456122	2
10088	44456	57.742684593428	2
10088	45119	58.142684593428	3
10088	47208	59.647193478715	16
10088	47378	59.749035621494	10
10088	47719	60.049708097254	2
10088	48518	60.757420378163	12
10088	48522	60.760519980287	5
10088	48536	60.774169980985	11
10088	49900	61.783397901335	11
10088	50193	61.983397901335	1
10088	52078	63.492497472173	16
10088	52849	64.004048017971	4
10088	53102	64.205454470054	1
10088	53915	64.805554570054	7
10088	54241	65.105554570054	2
10088	55011	65.680784182978	4
10088	55085	65.718207900564	5
10088	56658	67.024719821903	13
10088	56866	67.224719821903	1
10088	57387	67.725732546908	5
10088	57660	67.929079925593	1
10088	57795	68.014952790514	1
10088	59384	69.323546497101	13
10088	60036	69.823546497101	4
10088	60371	70.129457981938	3
10088	60764	70.433908475613	2
10088	61687	71.134008575613	9
10088	62271	71.634008575613	5
10088	62910	72.136361255713	4
10088	63446	72.571061701957	4
10088	64277	73.271061701957	6
10088	64727	73.679529944798	3
10088	64841	73.773350676516	6
10088	64848	73.77604385029	8
10088	64976	73.879718199204	5
10088	65248	74.094669483874	3
10088	65537	74.289157679975	7
10088	65965	74.59854138879	3
10088	66377	74.89854138879	2
10088	66862	75.299418941006	3
10088	66999	75.403185707706	0
10088	67776	76.11534622184	6
10088	67929	76.215554541283	1
10088	69000	77.315554541283	11
10088	69953	78.016973928379	6
10088	69994	78.054321701688	5
10088	70404	78.369819069367	2
10088	70963	78.878640025729	5
10088	71933	79.778640025729	8
10088	72284	80.088127652514	2
10088	73583	81.189379272977	11
10088	73825	81.389379272977	3
10088	74112	81.594615065932	1
10088	74117	81.598308888814	1
10088	74847	82.198701150917	5
10088	75099	82.40501513163	1
10088	75147	82.483472370532	4
10088	75462	82.78844198016	3
10088	76943	83.949283462751	9
10088	77608	84.549283462751	6
10088	78226	85.156278473785	5
10088	78755	85.582078521026	6
10088	79185	85.889290349159	3
10088	80046	86.589290349159	7
10088	80072	86.617109825834	4
10088	80569	87.026722242958	4
10088	81041	87.426722242958	3
10088	81128	87.525868299251	2
10088	81422	87.731570651328	2
10088	82055	88.226068499251	3
10088	82366	88.426068499251	1
10088	83075	88.932198895817	5
10088	83847	89.544460147118	3
10088	83942	89.632198895817	7
10088	84314	89.934960164006	2
10088	84334	89.93637363846	0
10088	84686	90.23637363846	2
10088	85016	90.537125369192	2
10088	85232	90.743213012901	1
10088	85391	90.866021430546	2
10088	85802	91.180891598333	1
10088	86048	91.389451438109	1
10088	86163	91.552815570654	7
10088	86487	91.757437679808	3
10088	87482	92.557437679808	8
10088	88010	92.964490677452	3
10088	88352	93.266064556082	3
10088	89304	94.066064556082	7
10088	89788	94.466164656082	4
10088	90370	94.966164656082	4
10088	90994	95.47312229991	4
10088	91426	95.87322239991	4
10088	91739	96.07322239991	1
10088	91984	96.278038926664	1
10088	92226	96.478682408471	1
10088	93303	97.385098976502	10
10088	94641	98.707244488676	5
10088	94825	98.885098976502	14
10088	95140	99.124205080009	3
10088	95300	99.229228818101	0
10088	95583	99.491944191048	6
10088	95673	99.533122720994	3
10088	95896	99.720147086465	7
10088	95938	99.723808915711	5
10088	96125	99.898940879723	3
10088	96837	100.602742532886	7
10088	97431	101.102742532886	4
10088	97706	101.308734762913	1
10088	98143	101.618014544343	3
10088	99020	102.318014544343	7
10088	99244	102.527089702125	1
10088	99470	102.715280185776	1
10088	100094	103.12118670472	3
10088	100115	103.133532591144	5
10088	100417	103.337912332064	1
10088	100421	103.342854099635	3
10088	100504	103.415380285776	1
10088	101092	103.822877976891	4
10088	101426	104.122877976891	3
10088	102424	105.00467020416	7
10088	102478	105.027911645224	11
10088	103292	105.707005882871	6
10088	103339	105.733721216065	7
10088	103402	105.775189550301	7
10088	103979	106.233777028424	5
10088	105010	107.03854225691	8
10088	105258	107.23854225691	1
10088	105511	107.448450189026	1
10088	105695	107.654170348134	1
10088	106075	108.056025493531	3
10088	106077	108.056176528471	3
10088	107989	109.658530235016	20
10088	108216	109.858530235016	1
10088	108523	110.067502867167	1
10088	108756	110.268719762044	1
10088	109091	110.57309038232	2
10088	109217	110.679944241642	1
10088	109248	110.741722248946	2
10088	109654	111.088902108283	3
10088	110237	111.589002208283	5
10088	111309	112.489002208283	8
10088	111694	112.891744159971	3
10088	112062	113.198928205946	3
10088	113697	114.481636548731	6
10088	114599	115.181636548731	7
10088	115227	115.685442006228	4
10088	115756	116.103145168649	5
10088	115875	116.187221986764	4
10088	116718	116.795455177559	6
10088	117144	117.195455177559	3
10088	117914	117.898407649497	6
10088	118144	118.105737902486	1
10088	118273	118.221833087214	1
10088	118530	118.504318910452	12
10088	118561	118.511332725023	0
10088	118922	118.811332725023	2
10088	119214	119.014385739832	2
10088	119578	119.315102839302	4
10088	119866	119.520966942107	4
10088	120116	119.726880703141	1
10088	120468	120.034112531604	2
10088	121318	120.735962004891	7
10088	122038	121.335962004891	6
10088	122462	121.640476176816	2
10088	122832	121.946052712415	3
10088	123887	122.846052712415	9
10088	124245	123.151261059819	2
10088	124886	123.651361159819	5
10088	125697	124.351361159819	6
10088	126620	125.057005925838	9
10088	127481	125.757005925838	7
10088	127641	125.958476340321	1
10088	128094	126.359049222598	5
10088	128720	126.959049222598	5
10088	129450	127.661086638726	7
10088	129821	127.970969557308	2
10088	129830	127.972955761601	10
10088	130240	128.273144886593	3
10088	131012	128.973144886593	7
10088	131254	129.175888756314	1
10088	131912	129.680250109516	4
10088	132270	129.986193413105	2
10088	132553	130.187725018201	1
10088	132702	130.315625611109	1
10088	132921	130.518928986943	3
10088	133273	130.818928986943	2
10088	133504	131.020851217635	1
10088	133656	131.116217933228	0
10088	133972	131.328216172592	3
10088	134651	131.919345048075	8
10088	134939	132.125054027883	1
10088	135653	132.733956476328	6
10088	136451	133.333956476328	6
10088	136671	133.534056576328	2
10088	137158	133.950422784154	1
10088	138399	135.050422784154	11
10088	138774	135.554550856555	4
10088	138907	135.990994382062	3
10089	197	20.2000001	0.75
10089	522	20.8000001	0.375
10089	765	21.103341953816	0.75
10089	1247	21.603442053816	0.25
10089	1439	21.803442053816	0.75
10089	2600	22.804786397048	-0.25
10089	3092	23.216180824995	0.625
10089	3368	23.518281337596	0.625
10089	3544	23.717172461175	0.5
10089	3772	23.921929775423	0.625
10089	4031	24.127008473076	0.75
10089	4394	24.427008473076	0.75
10089	5341	25.226001838231	0.875
10089	5907	25.726001838231	0.5
10089	6208	25.926869226344	0.875
10089	7122	26.736215490358	0.125
10089	7763	27.347942718993	-0.75
10089	8032	27.556030356929	0.875
10089	8759	28.217372661175	-1.375
10089	9150	28.523453840661	0.625
10089	9551	28.823453840661	0.75
10089	10250	29.432801935838	0.375
10089	10498	29.640038228183	0.875
10089	10559	29.700291143775	0.875
10089	11967	30.805052690312	-0.375
10089	12773	31.405052690312	0.25
10089	13603	32.114516446359	0.125
10089	13740	32.244653937692	0.25
10089	14047	32.514731964554	0.625
10089	14111	32.550212864462	0.75
10089	14447	32.849061357865	0.875
10089	14556	32.955212867172	0.5
10089	14586	33.01620452877	0.5
10089	14765	33.155239049809	0.875
10089	14768	33.15673810653	0.75
10089	15059	33.35683820653	0.75
10089	15618	33.75683820653	0.625
10089	15775	33.92558454339	0.625
10089	15866	33.956913535718	0.875
10089	16604	34.557571043461	0.25
10089	17501	35.257571043461	0.25
10089	18322	35.862353538871	0.375
10089	18810	36.365488191591	0
10089	19256	36.77065324121	0.5
10089	19525	37.07065324121	0.75
10089	19810	37.370936832587	0.75
10089	19975	37.574392107378	0.875
10089	20222	37.878464795718	0.875
10089	20231	37.883391864578	0.625
10089	20398	38.081964311717	0.875
10089	21037	38.58984270209	0.33333331346512
10089	21121	38.683320898454	0.125
10089	22217	39.692259434324	-0.25
10089	22693	40.092259434324	0.5
10089	23073	40.400681950661	0.75
10089	23114	40.454321277576	0.75
10089	23263	40.55903461708	0.875
10089	23491	40.75903461708	0.875
10089	23627	40.860521830332	1
10089	24183	41.260621930332	0.5
10089	24756	41.760621930332	0.5
10089	25253	42.170383939101	0.5
10089	25913	42.698163686791	0.375
10089	26037	42.771005827349	0.375
10089	26315	42.980282168814	0.875
10089	26323	42.983382068657	0.875
10089	27628	43.988915573109	-0.625
10089	28480	44.728463462283	0.25
10089	29107	45.238350523702	0.5
10089	29648	45.647485904454	0.625
10089	29862	45.848271066423	0.75
10089	30298	46.152056581726	0.5
10089	31229	46.87809843531	0.375
10089	31263	46.936887560382	0.625
10089	31294	46.938509196442	1
10089	31877	47.438509196442	0.5
10089	32574	48.151556214899	0.25
10089	32895	48.460575639094	0.75
10089	32976	48.548986716015	0.75
10089	33485	48.949723010037	0.5
10089	34395	49.649723010037	0.25
10089	35201	50.167511051449	0.375
10089	35848	50.667511051449	0.5
10089	36222	50.972159188137	0.75
10089	36234	50.976461493291	0.75
10089	36550	51.278161289564	0.75
10089	36775	51.478261389564	0.75
10089	37237	51.878261389564	0.5
10089	37738	52.280152200137	0.5
10089	38368	52.880152200137	0.375
10089	38692	53.19058353562	0.75
10089	39035	53.499842762549	0.75
10089	39275	53.705097726595	0.875
10089	39409	53.849097676149	0.25
10089	39681	54.05793727618	0.75
10089	40410	54.655353846895	0.75
10089	40976	55.155353846895	0.55555555224419
10089	41244	55.361902985216	0.75
10089	41996	55.962196388674	0.25
10089	42218	56.157826559633	0
10089	42636	56.465412446032	-0.5
10089	43029	56.772277781711	0.625
10089	43128	56.834588301788	0.75
10089	43161	56.862091954598	0
10089	43204	56.91258121415	0.25
10089	43462	57.115606456122	0.75
10089	44456	57.742684593428	0.75
10089	45119	58.142684593428	0.625
10089	47208	59.647193478715	-1
10089	47378	59.749035621494	-0.25
10089	47719	60.049708097254	0.75
10089	48518	60.757420378163	-0.5
10089	48522	60.760519980287	0.375
10089	48536	60.774169980985	-0.375
10089	49900	61.783397901335	-0.375
10089	50193	61.983397901335	0.875
10089	52078	63.492497472173	-1
10089	52849	64.004048017971	0.5
10089	53102	64.205454470054	0.875
10089	53915	64.805554570054	0.125
10089	54241	65.105554570054	0.75
10089	55011	65.680784182978	0.5
10089	55085	65.718207900564	0.375
10089	56658	67.024719821903	-0.625
10089	56866	67.224719821903	0.875
10089	57387	67.725732546908	0.375
10089	57660	67.929079925593	0.875
10089	57795	68.014952790514	0.875
10089	59384	69.323546497101	-0.625
10089	60036	69.823546497101	0.5
10089	60371	70.129457981938	0.625
10089	60764	70.433908475613	0.75
10089	61687	71.134008575613	-0.125
10089	62271	71.634008575613	0.375
10089	62910	72.136361255713	0.5
10089	63446	72.571061701957	0.5
10089	64277	73.271061701957	0.25
10089	64727	73.679529944798	0.625
10089	64841	73.773350676516	0.25
10089	64848	73.77604385029	0
10089	64976	73.879718199204	0.375
10089	65248	74.094669483874	0.625
10089	65537	74.289157679975	0.125
10089	65965	74.59854138879	0.625
10089	66377	74.89854138879	0.75
10089	66862	75.299418941006	0.625
10089	66999	75.403185707706	1
10089	67776	76.11534622184	0.25
10089	67929	76.215554541283	0.875
10089	69000	77.315554541283	-0.375
10089	69953	78.016973928379	0.25
10089	69994	78.054321701688	0.375
10089	70404	78.369819069367	0.75
10089	70963	78.878640025729	0.375
10089	71933	79.778640025729	0
10089	72284	80.088127652514	0.75
10089	73583	81.189379272977	-0.375
10089	73825	81.389379272977	0.625
10089	74112	81.594615065932	0.875
10089	74117	81.598308888814	0.875
10089	74847	82.198701150917	0.375
10089	75099	82.40501513163	0.875
10089	75147	82.483472370532	0.5
10089	75462	82.78844198016	0.625
10089	76943	83.949283462751	-0.125
10089	77608	84.549283462751	0.25
10089	78226	85.156278473785	0.375
10089	78755	85.582078521026	0.25
10089	79185	85.889290349159	0.625
10089	80046	86.589290349159	0.125
10089	80072	86.617109825834	0.5
10089	80569	87.026722242958	0.5
10089	81041	87.426722242958	0.625
10089	81128	87.525868299251	0.75
10089	81422	87.731570651328	0.75
10089	82055	88.226068499251	0.625
10089	82366	88.426068499251	0.875
10089	83075	88.932198895817	0.375
10089	83847	89.544460147118	0.625
10089	83942	89.632198895817	0.125
10089	84314	89.934960164006	0.75
10089	84334	89.93637363846	1
10089	84686	90.23637363846	0.75
10089	85016	90.537125369192	0.75
10089	85232	90.743213012901	0.875
10089	85391	90.866021430546	0.75
10089	85802	91.180891598333	0.875
10089	86048	91.389451438109	0.875
10089	86163	91.552815570654	0.125
10089	86487	91.757437679808	0.625
10089	87482	92.557437679808	0
10089	88010	92.964490677452	0.625
10089	88352	93.266064556082	0.625
10089	89304	94.066064556082	0.125
10089	89788	94.466164656082	0.5
10089	90370	94.966164656082	0.5
10089	90994	95.47312229991	0.5
10089	91426	95.87322239991	0.5
10089	91739	96.07322239991	0.875
10089	91984	96.278038926664	0.875
10089	92226	96.478682408471	0.875
10089	93303	97.385098976502	-0.11111116409302
10089	94641	98.707244488676	0.375
10089	94825	98.885098976502	-0.75
10089	95140	99.124205080009	0.625
10089	95300	99.229228818101	1
10089	95583	99.491944191048	0.25
10089	95673	99.533122720994	0.625
10089	95896	99.720147086465	0.125
10089	95938	99.723808915711	0.375
10089	96125	99.898940879723	0.625
10089	96837	100.602742532886	0.125
10089	97431	101.102742532886	0.5
10089	97706	101.308734762913	0.875
10089	98143	101.618014544343	0.625
10089	99020	102.318014544343	0.125
10089	99244	102.527089702125	0.875
10089	99470	102.715280185776	0.875
10089	100094	103.12118670472	0.625
10089	100115	103.133532591144	0.375
10089	100417	103.337912332064	0.875
10089	100421	103.342854099635	0.625
10089	100504	103.415380285776	0.875
10089	101092	103.822877976891	0.5
10089	101426	104.122877976891	0.625
10089	102424	105.00467020416	0.125
10089	102478	105.027911645224	-0.375
10089	103292	105.707005882871	0.25
10089	103339	105.733721216065	0.125
10089	103402	105.775189550301	0.125
10089	103979	106.233777028424	0.375
10089	105010	107.03854225691	0
10089	105258	107.23854225691	0.875
10089	105511	107.448450189026	0.875
10089	105695	107.654170348134	0.875
10089	106075	108.056025493531	0.625
10089	106077	108.056176528471	0.625
10089	107989	109.658530235016	-1.5
10089	108216	109.858530235016	0.875
10089	108523	110.067502867167	0.875
10089	108756	110.268719762044	0.875
10089	109091	110.57309038232	0.75
10089	109217	110.679944241642	0.875
10089	109248	110.741722248946	0.75
10089	109654	111.088902108283	0.625
10089	110237	111.589002208283	0.375
10089	111309	112.489002208283	0
10089	111694	112.891744159971	0.625
10089	112062	113.198928205946	0.625
10089	113697	114.481636548731	0.25
10089	114599	115.181636548731	0.125
10089	115227	115.685442006228	0.5
10089	115756	116.103145168649	0.375
10089	115875	116.187221986764	0.5
10089	116718	116.795455177559	0.25
10089	117144	117.195455177559	0.625
10089	117914	117.898407649497	0.25
10089	118144	118.105737902486	0.875
10089	118273	118.221833087214	0.875
10089	118530	118.504318910452	-0.5
10089	118561	118.511332725023	1
10089	118922	118.811332725023	0.75
10089	119214	119.014385739832	0.75
10089	119578	119.315102839302	0.5
10089	119866	119.520966942107	0.5
10089	120116	119.726880703141	0.875
10089	120468	120.034112531604	0.75
10089	121318	120.735962004891	0.125
10089	122038	121.335962004891	0.25
10089	122462	121.640476176816	0.75
10089	122832	121.946052712415	0.625
10089	123887	122.846052712415	-0.125
10089	124245	123.151261059819	0.75
10089	124886	123.651361159819	0.375
10089	125697	124.351361159819	0.25
10089	126620	125.057005925838	-0.125
10089	127481	125.757005925838	0.125
10089	127641	125.958476340321	0.875
10089	128094	126.359049222598	0.375
10089	128720	126.959049222598	0.375
10089	129450	127.661086638726	0.125
10089	129821	127.970969557308	0.75
10089	129830	127.972955761601	-0.25
10089	130240	128.273144886593	0.625
10089	131012	128.973144886593	0.125
10089	131254	129.175888756314	0.875
10089	131912	129.680250109516	0.5
10089	132270	129.986193413105	0.75
10089	132553	130.187725018201	0.875
10089	132702	130.315625611109	0.875
10089	132921	130.518928986943	0.625
10089	133273	130.818928986943	0.75
10089	133504	131.020851217635	0.875
10089	133656	131.116217933228	1
10089	133972	131.328216172592	0.625
10089	134651	131.919345048075	0
10089	134939	132.125054027883	0.875
10089	135653	132.733956476328	0.25
10089	136451	133.333956476328	0.25
10089	136671	133.534056576328	0.75
10089	137158	133.950422784154	0.875
10089	138399	135.050422784154	-0.375
10089	138774	135.554550856555	0.5
10089	138907	135.990994382062	0.625
10090	197	20.2000001	0.2
10090	522	20.8000001	0.6
10090	765	21.103341953816	0.3
10090	1247	21.603442053816	0.5
10090	1439	21.803442053816	0.2
10090	2600	22.804786397048	1
10090	3092	23.216180824995	0.4
10090	3368	23.518281337596	0.3
10090	3544	23.717172461175	0.4
10090	3772	23.921929775423	0.4
10090	4031	24.127008473076	0.2
10090	4394	24.427008473076	0.3
10090	5341	25.226001838231	0.1
10090	5907	25.726001838231	0.5
10090	6208	25.926869226344	0.2
10090	7122	26.736215490358	0.8
10090	7763	27.347942718993	1.3
10090	8032	27.556030356929	0.2
10090	8759	28.217372661175	1.9
10090	9150	28.523453840661	0.3
10090	9551	28.823453840661	0.3
10090	10250	29.432801935838	0.6
10090	10498	29.640038228183	0.2
10090	10559	29.700291143775	0.2
10090	11967	30.805052690312	1.1
10090	12773	31.405052690312	0.6
10090	13603	32.114516446359	0.7
10090	13740	32.244653937692	0.7
10090	14047	32.514731964554	0.4
10090	14111	32.550212864462	0.3
10090	14447	32.849061357865	0.2
10090	14556	32.955212867172	0.4
10090	14586	33.01620452877	0.5
10090	14765	33.155239049809	0.2
10090	14768	33.15673810653	0.3
10090	15059	33.35683820653	0.2
10090	15618	33.75683820653	0.4
10090	15775	33.92558454339	0.4
10090	15866	33.956913535718	0.2
10090	16604	34.557571043461	0.6
10090	17501	35.257571043461	0.7
10090	18322	35.862353538871	0.6
10090	18810	36.365488191591	0.8
10090	19256	36.77065324121	0.4
10090	19525	37.07065324121	0.3
10090	19810	37.370936832587	0.3
10090	19975	37.574392107378	0.2
10090	20222	37.878464795718	0.2
10090	20231	37.883391864578	0.3
10090	20398	38.081964311717	0.2
10090	21037	38.58984270209	0.7
10090	21121	38.683320898454	0.6
10090	22217	39.692259434324	1
10090	22693	40.092259434324	0.4
10090	23073	40.400681950661	0.3
10090	23114	40.454321277576	0.3
10090	23263	40.55903461708	0.1
10090	23491	40.75903461708	0.2
10090	23627	40.860521830332	0.1
10090	24183	41.260621930332	0.4
10090	24756	41.760621930332	0.5
10090	25253	42.170383939101	0.4
10090	25913	42.698163686791	0.6
10090	26037	42.771005827349	0.6
10090	26315	42.980282168814	0.2
10090	26323	42.983382068657	0.2
10090	27628	43.988915573109	1
10090	28480	44.728463462283	0.4
10090	29107	45.238350523702	0.5
10090	29648	45.647485904454	0.4
10090	29862	45.848271066423	0.2
10090	30298	46.152056581726	0.3
10090	31229	46.87809843531	0.6
10090	31263	46.936887560382	0.3
10090	31294	46.938509196442	0
10090	31877	47.438509196442	0.5
10090	32574	48.151556214899	0.7
10090	32895	48.460575639094	0.3
10090	32976	48.548986716015	0.3
10090	33485	48.949723010037	0.4
10090	34395	49.649723010037	0.7
10090	35201	50.167511051449	0.4
10090	35848	50.667511051449	0.5
10090	36222	50.972159188137	0.3
10090	36234	50.976461493291	0.3
10090	36550	51.278161289564	0.3
10090	36775	51.478261389564	0.2
10090	37237	51.878261389564	0.4
10090	37738	52.280152200137	0.4
10090	38368	52.880152200137	0.6
10090	38692	53.19058353562	0.3
10090	39035	53.499842762549	0.3
10090	39275	53.705097726595	0.2
10090	39409	53.849097676149	0.7
10090	39681	54.05793727618	0.2
10090	40410	54.655353846895	0.2
10090	40976	55.155353846895	0.5
10090	41244	55.361902985216	0.2
10090	41996	55.962196388674	0.6
10090	42218	56.157826559633	0.9
10090	42636	56.465412446032	1.1
10090	43029	56.772277781711	0.3
10090	43128	56.834588301788	0.3
10090	43161	56.862091954598	0.7
10090	43204	56.91258121415	0.7
10090	43462	57.115606456122	0.2
10090	44456	57.742684593428	0.2
10090	45119	58.142684593428	0.4
10090	47208	59.647193478715	1.5
10090	47378	59.749035621494	1
10090	47719	60.049708097254	0.3
10090	48518	60.757420378163	1.1
10090	48522	60.760519980287	0.6
10090	48536	60.774169980985	1.1
10090	49900	61.783397901335	1
10090	50193	61.983397901335	0.2
10090	52078	63.492497472173	1.5
10090	52849	64.004048017971	0.5
10090	53102	64.205454470054	0.2
10090	53915	64.805554570054	0.6
10090	54241	65.105554570054	0.3
10090	55011	65.680784182978	0.5
10090	55085	65.718207900564	0.6
10090	56658	67.024719821903	1.3