version 2
run Stability-20-20130526-18:48:44-1898
attr configname Stability
attr datetime 20130526-18:48:44
attr experiment Stability
attr inifile omnetpp.ini
attr iterationvars $0=1e4
attr iterationvars2 "$0=1e4, $repetition=0"
attr measurement $0=1e4
attr network Network
attr processid 1898
attr repetition 0
attr replication #0
attr resultdir results
attr runnumber 20
attr seedset 20

vector 2036  Network.churner  inGoingSizeSig:vector  ETV
vector 1940  Network.dyn_peer[0]  lookupHopsSig:vector  ETV
vector 1941  Network.dyn_peer[0]  lookupStabilitySig:vector  ETV
vector 1942  Network.dyn_peer[0]  lookupTimeSig:vector  ETV
vector 1943  Network.dyn_peer[1]  lookupHopsSig:vector  ETV
vector 1944  Network.dyn_peer[1]  lookupStabilitySig:vector  ETV
vector 1945  Network.dyn_peer[1]  lookupTimeSig:vector  ETV
vector 1946  Network.dyn_peer[2]  lookupHopsSig:vector  ETV
vector 1947  Network.dyn_peer[2]  lookupStabilitySig:vector  ETV
vector 1948  Network.dyn_peer[2]  lookupTimeSig:vector  ETV
vector 1949  Network.dyn_peer[3]  lookupHopsSig:vector  ETV
vector 1950  Network.dyn_peer[3]  lookupStabilitySig:vector  ETV
vector 1951  Network.dyn_peer[3]  lookupTimeSig:vector  ETV
vector 1952  Network.dyn_peer[4]  lookupHopsSig:vector  ETV
vector 1953  Network.dyn_peer[4]  lookupStabilitySig:vector  ETV
vector 1954  Network.dyn_peer[4]  lookupTimeSig:vector  ETV
vector 1955  Network.dyn_peer[5]  lookupHopsSig:vector  ETV
vector 1956  Network.dyn_peer[5]  lookupStabilitySig:vector  ETV
vector 1957  Network.dyn_peer[5]  lookupTimeSig:vector  ETV
vector 1958  Network.dyn_peer[6]  lookupHopsSig:vector  ETV
vector 1959  Network.dyn_peer[6]  lookupStabilitySig:vector  ETV
vector 1960  Network.dyn_peer[6]  lookupTimeSig:vector  ETV
vector 1961  Network.dyn_peer[7]  lookupHopsSig:vector  ETV
vector 1962  Network.dyn_peer[7]  lookupStabilitySig:vector  ETV
vector 1963  Network.dyn_peer[7]  lookupTimeSig:vector  ETV
vector 1964  Network.dyn_peer[8]  lookupHopsSig:vector  ETV
vector 1965  Network.dyn_peer[8]  lookupStabilitySig:vector  ETV
vector 1966  Network.dyn_peer[8]  lookupTimeSig:vector  ETV
vector 1967  Network.dyn_peer[9]  lookupHopsSig:vector  ETV
vector 1968  Network.dyn_peer[9]  lookupStabilitySig:vector  ETV
vector 1969  Network.dyn_peer[9]  lookupTimeSig:vector  ETV
vector 1970  Network.dyn_peer[10]  lookupHopsSig:vector  ETV
vector 1971  Network.dyn_peer[10]  lookupStabilitySig:vector  ETV
vector 1972  Network.dyn_peer[10]  lookupTimeSig:vector  ETV
vector 1973  Network.dyn_peer[11]  lookupHopsSig:vector  ETV
vector 1974  Network.dyn_peer[11]  lookupStabilitySig:vector  ETV
vector 1975  Network.dyn_peer[11]  lookupTimeSig:vector  ETV
vector 1976  Network.dyn_peer[12]  lookupHopsSig:vector  ETV
vector 1977  Network.dyn_peer[12]  lookupStabilitySig:vector  ETV
vector 1978  Network.dyn_peer[12]  lookupTimeSig:vector  ETV
vector 1979  Network.dyn_peer[13]  lookupHopsSig:vector  ETV
vector 1980  Network.dyn_peer[13]  lookupStabilitySig:vector  ETV
vector 1981  Network.dyn_peer[13]  lookupTimeSig:vector  ETV
vector 1982  Network.dyn_peer[14]  lookupHopsSig:vector  ETV
vector 1983  Network.dyn_peer[14]  lookupStabilitySig:vector  ETV
vector 1984  Network.dyn_peer[14]  lookupTimeSig:vector  ETV
vector 1985  Network.dyn_peer[15]  lookupHopsSig:vector  ETV
vector 1986  Network.dyn_peer[15]  lookupStabilitySig:vector  ETV
vector 1987  Network.dyn_peer[15]  lookupTimeSig:vector  ETV
vector 1988  Network.dyn_peer[16]  lookupHopsSig:vector  ETV
vector 1989  Network.dyn_peer[16]  lookupStabilitySig:vector  ETV
vector 1990  Network.dyn_peer[16]  lookupTimeSig:vector  ETV
vector 1991  Network.dyn_peer[17]  lookupHopsSig:vector  ETV
vector 1992  Network.dyn_peer[17]  lookupStabilitySig:vector  ETV
vector 1993  Network.dyn_peer[17]  lookupTimeSig:vector  ETV
vector 1994  Network.dyn_peer[18]  lookupHopsSig:vector  ETV
vector 1995  Network.dyn_peer[18]  lookupStabilitySig:vector  ETV
vector 1996  Network.dyn_peer[18]  lookupTimeSig:vector  ETV
vector 1997  Network.dyn_peer[19]  lookupHopsSig:vector  ETV
vector 1998  Network.dyn_peer[19]  lookupStabilitySig:vector  ETV
vector 1999  Network.dyn_peer[19]  lookupTimeSig:vector  ETV
vector 2000  Network.dyn_peer[20]  lookupHopsSig:vector  ETV
vector 2001  Network.dyn_peer[20]  lookupStabilitySig:vector  ETV
vector 2002  Network.dyn_peer[20]  lookupTimeSig:vector  ETV
vector 2003  Network.dyn_peer[21]  lookupHopsSig:vector  ETV
vector 2004  Network.dyn_peer[21]  lookupStabilitySig:vector  ETV
vector 2005  Network.dyn_peer[21]  lookupTimeSig:vector  ETV
vector 2006  Network.dyn_peer[22]  lookupHopsSig:vector  ETV
vector 2007  Network.dyn_peer[22]  lookupStabilitySig:vector  ETV
vector 2008  Network.dyn_peer[22]  lookupTimeSig:vector  ETV
vector 2009  Network.dyn_peer[23]  lookupHopsSig:vector  ETV
vector 2010  Network.dyn_peer[23]  lookupStabilitySig:vector  ETV
vector 2011  Network.dyn_peer[23]  lookupTimeSig:vector  ETV
vector 2012  Network.dyn_peer[24]  lookupHopsSig:vector  ETV
vector 2013  Network.dyn_peer[24]  lookupStabilitySig:vector  ETV
vector 2014  Network.dyn_peer[24]  lookupTimeSig:vector  ETV
vector 2015  Network.dyn_peer[25]  lookupHopsSig:vector  ETV
vector 2016  Network.dyn_peer[25]  lookupStabilitySig:vector  ETV
vector 2017  Network.dyn_peer[25]  lookupTimeSig:vector  ETV
vector 2018  Network.dyn_peer[26]  lookupHopsSig:vector  ETV
vector 2019  Network.dyn_peer[26]  lookupStabilitySig:vector  ETV
vector 2020  Network.dyn_peer[26]  lookupTimeSig:vector  ETV
vector 2021  Network.dyn_peer[27]  lookupHopsSig:vector  ETV
vector 2022  Network.dyn_peer[27]  lookupStabilitySig:vector  ETV
vector 2023  Network.dyn_peer[27]  lookupTimeSig:vector  ETV
vector 2024  Network.dyn_peer[28]  lookupHopsSig:vector  ETV
vector 2025  Network.dyn_peer[28]  lookupStabilitySig:vector  ETV
vector 2026  Network.dyn_peer[28]  lookupTimeSig:vector  ETV
vector 2027  Network.dyn_peer[29]  lookupHopsSig:vector  ETV
vector 2028  Network.dyn_peer[29]  lookupStabilitySig:vector  ETV
vector 2029  Network.dyn_peer[29]  lookupTimeSig:vector  ETV
vector 2030  Network.dyn_peer[30]  lookupHopsSig:vector  ETV
vector 2031  Network.dyn_peer[30]  lookupStabilitySig:vector  ETV
vector 2032  Network.dyn_peer[30]  lookupTimeSig:vector  ETV
vector 2033  Network.dyn_peer[31]  lookupHopsSig:vector  ETV
vector 2034  Network.dyn_peer[31]  lookupStabilitySig:vector  ETV
vector 2035  Network.dyn_peer[31]  lookupTimeSig:vector  ETV
1940	30	30.2	2
1940	33	30.4	1
1940	40	30.719666687726	2
1940	44	30.924277081706	1
1940	1064	350.1	1
1940	1067	350.3	1
1940	1071	350.508846664912	1
1940	1077	350.71758353245	1
1940	2102	670.2	2
1940	2105	670.4	1
1940	2110	670.60692199567	1
1940	2114	670.816291527423	1
1940	3148	990.1	1
1940	3151	990.3	1
1940	3155	990.508777298207	1
1940	3162	990.832264057338	2
1940	4174	1310.1	1
1940	4177	1310.3	1
1940	4182	1310.508178356831	1
1940	4188	1310.723607342415	1
1940	5251	1630.1	1
1940	5255	1630.4	2
1940	5263	1630.61837015228	1
1940	5277	1630.960302519249	2
1940	6274	1950.1	1
1940	6278	1950.4	2
1940	6282	1950.607215396438	1
1940	6287	1950.821874074749	1
1940	7295	2270.1	1
1940	7298	2270.3	1
1940	7302	2270.507226936896	1
1940	7306	2270.710716685251	1
1940	8355	2590.2	2
1940	8360	2590.6	3
1940	8364	2590.801316295212	1
1940	8368	2591.002552252343	1
1940	9402	2910.1	1
1940	9405	2910.3	1
1940	9410	2910.51048342199	1
1940	9414	2910.713553510759	1
1940	10439	3230.1	1
1940	10447	3230.417161014478	2
1940	10451	3230.623109207628	1
1940	10462	3230.870814431263	1
1940	11502	3550.1	1
1940	11506	3550.4	2
1940	11510	3550.60333160076	1
1940	11514	3550.809119044762	1
1940	12551	3870	0
1940	12555	3870.3	2
1940	12559	3870.503608561861	1
1940	12563	3870.710342446346	1
1940	13608	4190.1	1
1940	13611	4190.3	1
1940	13616	4190.507889565875	1
1940	13628	4190.837970449764	2
1940	14657	4510.2	2
1940	14660	4510.4	1
1940	14664	4510.605651123421	1
1940	14669	4510.819990278295	1
1940	15702	4830.2	2
1940	15705	4830.4	1
1940	15709	4830.609611903501	1
1940	15713	4830.816338853831	1
1940	16715	5150.2	2
1940	16719	5150.5	2
1940	16724	5150.710045829179	1
1940	16729	5150.914158451905	1
1940	17726	5470.2	2
1940	17731	5470.50666274965	2
1940	17736	5470.808744847073	2
1940	17741	5471.111588417758	2
1940	18783	5790.2	2
1940	18786	5790.4	1
1940	18793	5790.621404034156	1
1940	18800	5790.841973494711	1
1940	19803	6110.1	1
1940	19806	6110.3	1
1940	19817	6110.541082426057	1
1940	19826	6110.773277816851	1
1940	20834	6430.1	1
1940	20838	6430.4	2
1940	20843	6430.709487899951	2
1940	20852	6430.936471631423	1
1940	21883	6750.2	2
1940	21888	6750.419018209837	1
1940	21894	6750.732946314154	2
1940	21900	6750.944573395187	1
1940	22931	7070.2	2
1940	22935	7070.5	2
1940	22940	7070.703573850914	1
1940	22949	7071.023147305303	2
1940	24006	7390.2	2
1940	24009	7390.4	1
1940	24014	7390.612048090395	1
1940	24018	7390.816906682386	1
1940	25037	7710	0
1940	25040	7710.2	1
1940	25044	7710.407270152473	1
1940	25054	7710.641303363575	1
1940	26069	8030	0
1940	26074	8030.303534531004	2
1940	26079	8030.511708499106	1
1940	26088	8030.742378063708	1
1940	27122	8350.2	2
1940	27127	8350.502153163149	2
1940	27132	8350.805740278982	2
1940	27136	8351.01337373447	1
1940	28166	8670.1	1
1940	28170	8670.4	2
1940	28174	8670.601133036434	1
1940	28178	8670.803127986416	1
1940	29243	8990	0
1940	29247	8990.205669175572	1
1940	29255	8990.429939677573	1
1940	29263	8990.646002327597	1
1940	30307	9310.2	2
1940	30311	9310.5	2
1940	30316	9310.805415417207	2
1940	30321	9311.112605488393	2
1940	31348	9630	0
1940	31351	9630.2	1
1940	31357	9630.505265984376	2
1940	31363	9630.708248559853	1
1940	32377	9950.2	2
1940	32382	9950.501907514398	2
1940	32386	9950.70544100623	1
1940	32397	9950.95050528366	1
1940	33390	10270.2	2
1940	33393	10270.4	1
1940	33398	10270.6081902302	1
1940	33404	10270.913804069344	2
1940	34439	10590.1	1
1940	34442	10590.3	1
1940	34450	10590.522057170062	1
1940	34457	10590.73464273778	1
1940	35462	10910	0
1940	35466	10910.3	2
1940	35470	10910.500695995835	1
1940	35474	10910.709769018227	1
1940	36480	11230	0
1940	36486	11230.3099353819	2
1940	36497	11230.638957920759	2
1940	36503	11230.847924332022	1
1940	37556	11550	0
1940	37560	11550.3	2
1940	37564	11550.509088340122	1
1940	37570	11550.721788647988	1
1940	38633	11870	0
1940	38637	11870.3	2
1940	38649	11870.621190567892	2
1940	38656	11870.840753160118	1
1940	39675	12190.2	2
1940	39680	12190.504300491148	2
1940	39684	12190.714002419474	1
1940	39690	12191.016632280678	2
1940	40704	12510	0
1940	40709	12510.301174224957	2
1940	40713	12510.505259685848	1
1940	40720	12510.826538618732	2
1940	41749	12830.1	1
1940	41752	12830.3	1
1940	41756	12830.500837607264	1
1940	41765	12830.724628663076	1
1940	42790	13150.2	2
1940	42794	13150.5	2
1940	42798	13150.708397025782	1
1940	42804	13151.024175557968	2
1940	43857	13470.2	2
1940	43863	13470.503239812752	2
1940	43869	13470.813019073466	2
1940	43877	13471.030447233806	1
1940	44898	13790	0
1940	44901	13790.2	1
1940	44907	13790.414847545932	1
1940	44920	13790.665847886516	1
1940	45925	14110.1	1
1940	45928	14110.3	1
1940	45933	14110.609974126003	2
1940	45937	14110.815696547264	1
1940	46977	14430.1	1
1940	46980	14430.3	1
1940	46985	14430.600854849633	2
1940	46990	14430.904291624284	2
1940	48008	14750.1	1
1940	48011	14750.3	1
1940	48019	14750.62602481576	2
1940	48025	14750.84577531525	1
1940	49067	15070.1	1
1940	49070	15070.3	1
1940	49075	15070.601236276531	2
1940	49079	15070.809194111346	1
1940	50132	15390.2	2
1940	50136	15390.5	2
1940	50140	15390.703042308269	1
1940	50144	15390.909453269937	1
1940	51204	15710.2	2
1940	51208	15710.5	2
1940	51212	15710.708284826716	1
1940	51216	15710.915990416393	1
1940	52210	16030.1	1
1940	52213	16030.3	1
1940	52217	16030.506739546672	1
1940	52221	16030.715588937934	1
1940	53228	16350.1	1
1940	53232	16350.4	2
1940	53236	16350.606009062044	1
1940	53243	16350.822063097528	1
1940	54268	16670.2	2
1940	54272	16670.5	2
1940	54276	16670.701301764608	1
1940	54283	16670.915368299576	1
1940	55333	16990.2	2
1940	55336	16990.4	1
1940	55342	16990.702857710685	2
1940	55346	16990.912111284749	1
1940	56382	17310.2	2
1940	56386	17310.5	2
1940	56391	17310.713526884284	1
1940	56399	17310.931267039017	1
1940	57422	17630.2	2
1940	57425	17630.4	1
1940	57429	17630.605674780227	1
1940	57434	17630.81955027011	1
1940	58464	17950.2	2
1940	58468	17950.5	2
1940	58473	17950.718763915658	1
1940	58477	17950.924417918574	1
1940	59500	18270.1	1
1940	59503	18270.3	1
1940	59508	18270.512356736251	1
1940	59512	18270.719677929296	1
1940	60548	18590.1	1
1940	60551	18590.3	1
1940	60556	18590.602986276976	2
1940	60561	18590.815285341147	1
1940	61588	18910	0
1940	61592	18910.3	2
1940	61596	18910.502317351719	1
1940	61602	18910.716956116368	1
1940	62666	19230.1	1
1940	62671	19230.40429024338	2
1940	62675	19230.606069594879	1
1940	62680	19230.818919836511	1
1940	63723	19550.2	2
1940	63727	19550.403838231565	1
1940	63732	19550.615547043442	1
1940	63736	19550.821780513916	1
1940	64762	19870.1	1
1940	64766	19870.4	2
1940	64771	19870.702966409341	2
1940	64776	19870.918206131426	1
1940	65818	20190.1	1
1940	65822	20190.4	2
1940	65827	20190.707117832268	2
1940	65832	20191.011992805048	2
1941	30	30.2	0.75
1941	33	30.4	0.875
1941	40	30.719666687726	0.75
1941	44	30.924277081706	0.875
1941	1064	350.1	0.875
1941	1067	350.3	0.875
1941	1071	350.508846664912	0.875
1941	1077	350.71758353245	0.875
1941	2102	670.2	0.75
1941	2105	670.4	0.875
1941	2110	670.60692199567	0.875
1941	2114	670.816291527423	0.875
1941	3148	990.1	0.875
1941	3151	990.3	0.875
1941	3155	990.508777298207	0.875
1941	3162	990.832264057338	0.75
1941	4174	1310.1	0.875
1941	4177	1310.3	0.875
1941	4182	1310.508178356831	0.875
1941	4188	1310.723607342415	0.875
1941	5251	1630.1	0.875
1941	5255	1630.4	0.75
1941	5263	1630.61837015228	0.875
1941	5277	1630.960302519249	0.75
1941	6274	1950.1	0.875
1941	6278	1950.4	0.75
1941	6282	1950.607215396438	0.875
1941	6287	1950.821874074749	0.875
1941	7295	2270.1	0.875
1941	7298	2270.3	0.875
1941	7302	2270.507226936896	0.875
1941	7306	2270.710716685251	0.875
1941	8355	2590.2	0.75
1941	8360	2590.6	0.625
1941	8364	2590.801316295212	0.875
1941	8368	2591.002552252343	0.875
1941	9402	2910.1	0.875
1941	9405	2910.3	0.875
1941	9410	2910.51048342199	0.875
1941	9414	2910.713553510759	0.875
1941	10439	3230.1	0.875
1941	10447	3230.417161014478	0.75
1941	10451	3230.623109207628	0.875
1941	10462	3230.870814431263	0.875
1941	11502	3550.1	0.875
1941	11506	3550.4	0.75
1941	11510	3550.60333160076	0.875
1941	11514	3550.809119044762	0.875
1941	12551	3870	1
1941	12555	3870.3	0.75
1941	12559	3870.503608561861	0.875
1941	12563	3870.710342446346	0.875
1941	13608	4190.1	0.875
1941	13611	4190.3	0.875
1941	13616	4190.507889565875	0.875
1941	13628	4190.837970449764	0.75
1941	14657	4510.2	0.75
1941	14660	4510.4	0.875
1941	14664	4510.605651123421	0.875
1941	14669	4510.819990278295	0.875
1941	15702	4830.2	0.75
1941	15705	4830.4	0.875
1941	15709	4830.609611903501	0.875
1941	15713	4830.816338853831	0.875
1941	16715	5150.2	0.75
1941	16719	5150.5	0.75
1941	16724	5150.710045829179	0.875
1941	16729	5150.914158451905	0.875
1941	17726	5470.2	0.75
1941	17731	5470.50666274965	0.75
1941	17736	5470.808744847073	0.75
1941	17741	5471.111588417758	0.75
1941	18783	5790.2	0.75
1941	18786	5790.4	0.875
1941	18793	5790.621404034156	0.875
1941	18800	5790.841973494711	0.875
1941	19803	6110.1	0.875
1941	19806	6110.3	0.875
1941	19817	6110.541082426057	0.875
1941	19826	6110.773277816851	0.875
1941	20834	6430.1	0.875
1941	20838	6430.4	0.75
1941	20843	6430.709487899951	0.75
1941	20852	6430.936471631423	0.875
1941	21883	6750.2	0.75
1941	21888	6750.419018209837	0.875
1941	21894	6750.732946314154	0.75
1941	21900	6750.944573395187	0.875
1941	22931	7070.2	0.75
1941	22935	7070.5	0.75
1941	22940	7070.703573850914	0.875
1941	22949	7071.023147305303	0.75
1941	24006	7390.2	0.75
1941	24009	7390.4	0.875
1941	24014	7390.612048090395	0.875
1941	24018	7390.816906682386	0.875
1941	25037	7710	1
1941	25040	7710.2	0.875
1941	25044	7710.407270152473	0.875
1941	25054	7710.641303363575	0.875
1941	26069	8030	1
1941	26074	8030.303534531004	0.75
1941	26079	8030.511708499106	0.875
1941	26088	8030.742378063708	0.875
1941	27122	8350.2	0.75
1941	27127	8350.502153163149	0.75
1941	27132	8350.805740278982	0.75
1941	27136	8351.01337373447	0.875
1941	28166	8670.1	0.875
1941	28170	8670.4	0.75
1941	28174	8670.601133036434	0.875
1941	28178	8670.803127986416	0.875
1941	29243	8990	1
1941	29247	8990.205669175572	0.875
1941	29255	8990.429939677573	0.875
1941	29263	8990.646002327597	0.875
1941	30307	9310.2	0.75
1941	30311	9310.5	0.75
1941	30316	9310.805415417207	0.75
1941	30321	9311.112605488393	0.75
1941	31348	9630	1
1941	31351	9630.2	0.875
1941	31357	9630.505265984376	0.75
1941	31363	9630.708248559853	0.875
1941	32377	9950.2	0.75
1941	32382	9950.501907514398	0.75
1941	32386	9950.70544100623	0.875
1941	32397	9950.95050528366	0.875
1941	33390	10270.2	0.75
1941	33393	10270.4	0.875
1941	33398	10270.6081902302	0.875
1941	33404	10270.913804069344	0.75
1941	34439	10590.1	0.875
1941	34442	10590.3	0.875
1941	34450	10590.522057170062	0.875
1941	34457	10590.73464273778	0.875
1941	35462	10910	1
1941	35466	10910.3	0.75
1941	35470	10910.500695995835	0.875
1941	35474	10910.709769018227	0.875
1941	36480	11230	1
1941	36486	11230.3099353819	0.75
1941	36497	11230.638957920759	0.75
1941	36503	11230.847924332022	0.875
1941	37556	11550	1
1941	37560	11550.3	0.75
1941	37564	11550.509088340122	0.875
1941	37570	11550.721788647988	0.875
1941	38633	11870	1
1941	38637	11870.3	0.75
1941	38649	11870.621190567892	0.75
1941	38656	11870.840753160118	0.875
1941	39675	12190.2	0.75
1941	39680	12190.504300491148	0.75
1941	39684	12190.714002419474	0.875
1941	39690	12191.016632280678	0.75
1941	40704	12510	1
1941	40709	12510.301174224957	0.75
1941	40713	12510.505259685848	0.875
1941	40720	12510.826538618732	0.75
1941	41749	12830.1	0.875
1941	41752	12830.3	0.875
1941	41756	12830.500837607264	0.875
1941	41765	12830.724628663076	0.875
1941	42790	13150.2	0.75
1941	42794	13150.5	0.75
1941	42798	13150.708397025782	0.875
1941	42804	13151.024175557968	0.75
1941	43857	13470.2	0.75
1941	43863	13470.503239812752	0.75
1941	43869	13470.813019073466	0.75
1941	43877	13471.030447233806	0.875
1941	44898	13790	1
1941	44901	13790.2	0.875
1941	44907	13790.414847545932	0.875
1941	44920	13790.665847886516	0.875
1941	45925	14110.1	0.875
1941	45928	14110.3	0.875
1941	45933	14110.609974126003	0.75
1941	45937	14110.815696547264	0.875
1941	46977	14430.1	0.875
1941	46980	14430.3	0.875
1941	46985	14430.600854849633	0.75
1941	46990	14430.904291624284	0.75
1941	48008	14750.1	0.875
1941	48011	14750.3	0.875
1941	48019	14750.62602481576	0.75
1941	48025	14750.84577531525	0.875
1941	49067	15070.1	0.875
1941	49070	15070.3	0.875
1941	49075	15070.601236276531	0.75
1941	49079	15070.809194111346	0.875
1941	50132	15390.2	0.75
1941	50136	15390.5	0.75
1941	50140	15390.703042308269	0.875
1941	50144	15390.909453269937	0.875
1941	51204	15710.2	0.75
1941	51208	15710.5	0.75
1941	51212	15710.708284826716	0.875
1941	51216	15710.915990416393	0.875
1941	52210	16030.1	0.875
1941	52213	16030.3	0.875
1941	52217	16030.506739546672	0.875
1941	52221	16030.715588937934	0.875
1941	53228	16350.1	0.875
1941	53232	16350.4	0.75
1941	53236	16350.606009062044	0.875
1941	53243	16350.822063097528	0.875
1941	54268	16670.2	0.75
1941	54272	16670.5	0.75
1941	54276	16670.701301764608	0.875
1941	54283	16670.915368299576	0.875
1941	55333	16990.2	0.75
1941	55336	16990.4	0.875
1941	55342	16990.702857710685	0.75
1941	55346	16990.912111284749	0.875
1941	56382	17310.2	0.75
1941	56386	17310.5	0.75
1941	56391	17310.713526884284	0.875
1941	56399	17310.931267039017	0.875
1941	57422	17630.2	0.75
1941	57425	17630.4	0.875
1941	57429	17630.605674780227	0.875
1941	57434	17630.81955027011	0.875
1941	58464	17950.2	0.75
1941	58468	17950.5	0.75
1941	58473	17950.718763915658	0.875
1941	58477	17950.924417918574	0.875
1941	59500	18270.1	0.875
1941	59503	18270.3	0.875
1941	59508	18270.512356736251	0.875
1941	59512	18270.719677929296	0.875
1941	60548	18590.1	0.875
1941	60551	18590.3	0.875
1941	60556	18590.602986276976	0.75
1941	60561	18590.815285341147	0.875
1941	61588	18910	1
1941	61592	18910.3	0.75
1941	61596	18910.502317351719	0.875
1941	61602	18910.716956116368	0.875
1941	62666	19230.1	0.875
1941	62671	19230.40429024338	0.75
1941	62675	19230.606069594879	0.875
1941	62680	19230.818919836511	0.875
1941	63723	19550.2	0.75
1941	63727	19550.403838231565	0.875
1941	63732	19550.615547043442	0.875
1941	63736	19550.821780513916	0.875
1941	64762	19870.1	0.875
1941	64766	19870.4	0.75
1941	64771	19870.702966409341	0.75
1941	64776	19870.918206131426	0.875
1941	65818	20190.1	0.875
1941	65822	20190.4	0.75
1941	65827	20190.707117832268	0.75
1941	65832	20191.011992805048	0.75
1942	30	30.2	0.2
1942	33	30.4	0.2
1942	40	30.719666687726	0.3
1942	44	30.924277081706	0.2
1942	1064	350.1	0.1
1942	1067	350.3	0.2
1942	1071	350.508846664912	0.2
1942	1077	350.71758353245	0.2
1942	2102	670.2	0.2
1942	2105	670.4	0.2
1942	2110	670.60692199567	0.2
1942	2114	670.816291527423	0.2
1942	3148	990.1	0.1
1942	3151	990.3	0.2
1942	3155	990.508777298207	0.2
1942	3162	990.832264057338	0.3
1942	4174	1310.1	0.1
1942	4177	1310.3	0.2
1942	4182	1310.508178356831	0.2
1942	4188	1310.723607342415	0.2
1942	5251	1630.1	0.1
1942	5255	1630.4	0.3
1942	5263	1630.61837015228	0.2
1942	5277	1630.960302519249	0.3
1942	6274	1950.1	0.1
1942	6278	1950.4	0.3
1942	6282	1950.607215396438	0.2
1942	6287	1950.821874074749	0.2
1942	7295	2270.1	0.1
1942	7298	2270.3	0.2
1942	7302	2270.507226936896	0.2
1942	7306	2270.710716685251	0.2
1942	8355	2590.2	0.2
1942	8360	2590.6	0.4
1942	8364	2590.801316295212	0.2
1942	8368	2591.002552252343	0.2
1942	9402	2910.1	0.1
1942	9405	2910.3	0.2
1942	9410	2910.51048342199	0.2
1942	9414	2910.713553510759	0.2
1942	10439	3230.1	0.1
1942	10447	3230.417161014478	0.3
1942	10451	3230.623109207628	0.2
1942	10462	3230.870814431263	0.2
1942	11502	3550.1	0.1
1942	11506	3550.4	0.3
1942	11510	3550.60333160076	0.2
1942	11514	3550.809119044762	0.2
1942	12551	3870	0
1942	12555	3870.3	0.3
1942	12559	3870.503608561861	0.2
1942	12563	3870.710342446346	0.2
1942	13608	4190.1	0.1
1942	13611	4190.3	0.2
1942	13616	4190.507889565875	0.2
1942	13628	4190.837970449764	0.3
1942	14657	4510.2	0.2
1942	14660	4510.4	0.2
1942	14664	4510.605651123421	0.2
1942	14669	4510.819990278295	0.2
1942	15702	4830.2	0.2
1942	15705	4830.4	0.2
1942	15709	4830.609611903501	0.2
1942	15713	4830.816338853831	0.2
1942	16715	5150.2	0.2
1942	16719	5150.5	0.3
1942	16724	5150.710045829179	0.2
1942	16729	5150.914158451905	0.2
1942	17726	5470.2	0.2
1942	17731	5470.50666274965	0.3
1942	17736	5470.808744847073	0.3
1942	17741	5471.111588417758	0.3
1942	18783	5790.2	0.2
1942	18786	5790.4	0.2
1942	18793	5790.621404034156	0.2
1942	18800	5790.841973494711	0.2
1942	19803	6110.1	0.1
1942	19806	6110.3	0.2
1942	19817	6110.541082426057	0.2
1942	19826	6110.773277816851	0.2
1942	20834	6430.1	0.1
1942	20838	6430.4	0.3
1942	20843	6430.709487899951	0.3
1942	20852	6430.936471631423	0.2
1942	21883	6750.2	0.2
1942	21888	6750.419018209837	0.2
1942	21894	6750.732946314154	0.3
1942	21900	6750.944573395187	0.2
1942	22931	7070.2	0.2
1942	22935	7070.5	0.3
1942	22940	7070.703573850914	0.2
1942	22949	7071.023147305303	0.3
1942	24006	7390.2	0.2
1942	24009	7390.4	0.2
1942	24014	7390.612048090395	0.2
1942	24018	7390.816906682386	0.2
1942	25037	7710	0
1942	25040	7710.2	0.2
1942	25044	7710.407270152473	0.2
1942	25054	7710.641303363575	0.2
1942	26069	8030	0
1942	26074	8030.303534531004	0.3
1942	26079	8030.511708499106	0.2
1942	26088	8030.742378063708	0.2
1942	27122	8350.2	0.2
1942	27127	8350.502153163149	0.3
1942	27132	8350.805740278982	0.3
1942	27136	8351.01337373447	0.2
1942	28166	8670.1	0.1
1942	28170	8670.4	0.3
1942	28174	8670.601133036434	0.2
1942	28178	8670.803127986416	0.2
1942	29243	8990	0
1942	29247	8990.205669175572	0.2
1942	29255	8990.429939677573	0.2
1942	29263	8990.646002327597	0.2
1942	30307	9310.2	0.2
1942	30311	9310.5	0.3
1942	30316	9310.805415417207	0.3
1942	30321	9311.112605488393	0.3
1942	31348	9630	0
1942	31351	9630.2	0.2
1942	31357	9630.505265984376	0.3
1942	31363	9630.708248559853	0.2
1942	32377	9950.2	0.2
1942	32382	9950.501907514398	0.3
1942	32386	9950.70544100623	0.2
1942	32397	9950.95050528366	0.2
1942	33390	10270.2	0.2
1942	33393	10270.4	0.2
1942	33398	10270.6081902302	0.2
1942	33404	10270.913804069344	0.3
1942	34439	10590.1	0.1
1942	34442	10590.3	0.2
1942	34450	10590.522057170062	0.2
1942	34457	10590.73464273778	0.2
1942	35462	10910	0
1942	35466	10910.3	0.3
1942	35470	10910.500695995835	0.2
1942	35474	10910.709769018227	0.2
1942	36480	11230	0
1942	36486	11230.3099353819	0.3
1942	36497	11230.638957920759	0.3
1942	36503	11230.847924332022	0.2
1942	37556	11550	0
1942	37560	11550.3	0.3
1942	37564	11550.509088340122	0.2
1942	37570	11550.721788647988	0.2
1942	38633	11870	0
1942	38637	11870.3	0.3
1942	38649	11870.621190567892	0.3
1942	38656	11870.840753160118	0.2
1942	39675	12190.2	0.2
1942	39680	12190.504300491148	0.3
1942	39684	12190.714002419474	0.2
1942	39690	12191.016632280678	0.3
1942	40704	12510	0
1942	40709	12510.301174224957	0.3
1942	40713	12510.505259685848	0.2
1942	40720	12510.826538618732	0.3
1942	41749	12830.1	0.1
1942	41752	12830.3	0.2
1942	41756	12830.500837607264	0.2
1942	41765	12830.724628663076	0.2
1942	42790	13150.2	0.2
1942	42794	13150.5	0.3
1942	42798	13150.708397025782	0.2
1942	42804	13151.024175557968	0.3
1942	43857	13470.2	0.2
1942	43863	13470.503239812752	0.3
1942	43869	13470.813019073466	0.3
1942	43877	13471.030447233806	0.2
1942	44898	13790	0
1942	44901	13790.2	0.2
1942	44907	13790.414847545932	0.2
1942	44920	13790.665847886516	0.2
1942	45925	14110.1	0.1
1942	45928	14110.3	0.2
1942	45933	14110.609974126003	0.3
1942	45937	14110.815696547264	0.2
1942	46977	14430.1	0.1
1942	46980	14430.3	0.2
1942	46985	14430.600854849633	0.3
1942	46990	14430.904291624284	0.3
1942	48008	14750.1	0.1
1942	48011	14750.3	0.2
1942	48019	14750.62602481576	0.3
1942	48025	14750.84577531525	0.2
1942	49067	15070.1	0.1
1942	49070	15070.3	0.2
1942	49075	15070.601236276531	0.3
1942	49079	15070.809194111346	0.2
1942	50132	15390.2	0.2
1942	50136	15390.5	0.3
1942	50140	15390.703042308269	0.2
1942	50144	15390.909453269937	0.2
1942	51204	15710.2	0.2
1942	51208	15710.5	0.3
1942	51212	15710.708284826716	0.2
1942	51216	15710.915990416393	0.2
1942	52210	16030.1	0.1
1942	52213	16030.3	0.2
1942	52217	16030.506739546672	0.2
1942	52221	16030.715588937934	0.2
1942	53228	16350.1	0.1
1942	53232	16350.4	0.3
1942	53236	16350.606009062044	0.2
1942	53243	16350.822063097528	0.2
1942	54268	16670.2	0.2
1942	54272	16670.5	0.3
1942	54276	16670.701301764608	0.2
1942	54283	16670.915368299576	0.2
1942	55333	16990.2	0.2
1942	55336	16990.4	0.2
1942	55342	16990.702857710685	0.3
1942	55346	16990.912111284749	0.2
1942	56382	17310.2	0.2
1942	56386	17310.5	0.3
1942	56391	17310.713526884284	0.2
1942	56399	17310.931267039017	0.2
1942	57422	17630.2	0.2
1942	57425	17630.4	0.2
1942	57429	17630.605674780227	0.2
1942	57434	17630.81955027011	0.2
1942	58464	17950.2	0.2
1942	58468	17950.5	0.3
1942	58473	17950.718763915658	0.2
1942	58477	17950.924417918574	0.2
1942	59500	18270.1	0.1
1942	59503	18270.3	0.2
1942	59508	18270.512356736251	0.2
1942	59512	18270.719677929296	0.2
1942	60548	18590.1	0.1
1942	60551	18590.3	0.2
1942	60556	18590.602986276976	0.3
1942	60561	18590.815285341147	0.2
1942	61588	18910	0
1942	61592	18910.3	0.3
1942	61596	18910.502317351719	0.2
1942	61602	18910.716956116368	0.2
1942	62666	19230.1	0.1
1942	62671	19230.40429024338	0.3
1942	62675	19230.606069594879	0.2
1942	62680	19230.818919836511	0.2
1942	63723	19550.2	0.2
1942	63727	19550.403838231565	0.2
1942	63732	19550.615547043442	0.2
1942	63736	19550.821780513916	0.2
1942	64762	19870.1	0.1
1942	64766	19870.4	0.3
1942	64771	19870.702966409341	0.3
1942	64776	19870.918206131426	0.2
1942	65818	20190.1	0.1
1942	65822	20190.4	0.3
1942	65827	20190.707117832268	0.3
1942	65832	20191.011992805048	0.3
1943	62	40.2	2
1943	65	40.4	1
1943	70	40.60998871066	1
1943	76	40.830336317133	1
1943	1095	360.2	2
1943	1100	360.501799173138	2
1943	1105	360.809708823249	2
1943	1111	361.035535274688	1
1943	2132	680.2	2
1943	2136	680.409206279513	1
1943	2141	680.612408689208	1
1943	2146	680.916669647846	2
1943	3180	1000.2	2
1943	3184	1000.401368859801	1
1943	3189	1000.607444590647	1
1943	3194	1000.910625738671	2
1943	4205	1320.1	1
1943	4208	1320.3	1
1943	4213	1320.602836076619	2
1943	4218	1320.906588845161	2
1943	5295	1640.2	2
1943	5299	1640.5	2
1943	5303	1640.709950490309	1
1943	5308	1641.017908801489	2
1943	6303	1960	0
1943	6307	1960.3	2
1943	6311	1960.500599718033	1
1943	6321	1960.8319482748	2
1943	7323	2280.1	1
1943	7328	2280.314008651824	1
1943	7332	2280.516991357527	1
1943	7340	2280.836900279982	2
1943	8384	2600	0
1943	8390	2600.309489075447	2
1943	8394	2600.511684689899	1
1943	8400	2600.72983085428	1
1943	9432	2920.2	2
1943	9436	2920.5	2
1943	9444	2920.820345667612	2
1943	9450	2921.036748066866	1
1943	10480	3240.2	2
1943	10484	3240.5	2
1943	10489	3240.803987669509	2
1943	10494	3241.108478551467	2
1943	11532	3560.2	2
1943	11536	3560.5	2
1943	11541	3560.80492935311	2
1943	11546	3561.009915408155	1
1943	12580	3880.1	1
1943	12585	3880.40034551165	2
1943	12590	3880.707739478688	2
1943	12594	3880.910304889947	1
1943	13645	4200.1	1
1943	13648	4200.3	1
1943	13652	4200.500553928655	1
1943	13662	4200.732337367545	1
1943	14686	4520.1	1
1943	14690	4520.302442057293	1
1943	14694	4520.503318600987	1
1943	14702	4520.828507591441	2
1943	15730	4840.1	1
1943	15736	4840.412158098862	2
1943	15740	4840.618328297711	1
1943	15745	4840.826314635795	1
1943	16746	5160.1	1
1943	16749	5160.3	1
1943	16753	5160.508257082095	1
1943	16761	5160.722492671556	1
1943	17758	5480.1	1
1943	17764	5480.411750077066	2
1943	17769	5480.622798897696	1
1943	17773	5480.823836253837	1
1943	18817	5800.1	1
1943	18821	5800.4	2
1943	18825	5800.608779568469	1
1943	18830	5800.822991908575	1
1943	19844	6120.2	2
1943	19848	6120.5	2
1943	19858	6120.744284868687	1
1943	19864	6121.04739426822	2
1943	20870	6440.2	2
1943	20876	6440.50889869942	2