version 2
run Stability-51-20130526-18:50:26-1898
attr configname Stability
attr datetime 20130526-18:50:26
attr experiment Stability
attr inifile omnetpp.ini
attr iterationvars $0=1e1
attr iterationvars2 "$0=1e1, $repetition=1"
attr measurement $0=1e1
attr network Network
attr processid 1898
attr repetition 1
attr replication #1
attr resultdir results
attr runnumber 51
attr seedset 51

vector 5043  Network.churner  inGoingSizeSig:vector  ETV
vector 4947  Network.dyn_peer[0]  lookupHopsSig:vector  ETV
vector 4948  Network.dyn_peer[0]  lookupStabilitySig:vector  ETV
vector 4949  Network.dyn_peer[0]  lookupTimeSig:vector  ETV
vector 4956  Network.dyn_peer[3]  lookupHopsSig:vector  ETV
vector 4957  Network.dyn_peer[3]  lookupStabilitySig:vector  ETV
vector 4958  Network.dyn_peer[3]  lookupTimeSig:vector  ETV
vector 4959  Network.dyn_peer[4]  lookupHopsSig:vector  ETV
vector 4960  Network.dyn_peer[4]  lookupStabilitySig:vector  ETV
vector 4961  Network.dyn_peer[4]  lookupTimeSig:vector  ETV
vector 4989  Network.dyn_peer[14]  lookupHopsSig:vector  ETV
vector 4990  Network.dyn_peer[14]  lookupStabilitySig:vector  ETV
vector 4991  Network.dyn_peer[14]  lookupTimeSig:vector  ETV
vector 4971  Network.dyn_peer[8]  lookupHopsSig:vector  ETV
vector 4972  Network.dyn_peer[8]  lookupStabilitySig:vector  ETV
vector 4973  Network.dyn_peer[8]  lookupTimeSig:vector  ETV
vector 4977  Network.dyn_peer[10]  lookupHopsSig:vector  ETV
vector 4978  Network.dyn_peer[10]  lookupStabilitySig:vector  ETV
vector 4979  Network.dyn_peer[10]  lookupTimeSig:vector  ETV
vector 5007  Network.dyn_peer[20]  lookupHopsSig:vector  ETV
vector 5008  Network.dyn_peer[20]  lookupStabilitySig:vector  ETV
vector 5009  Network.dyn_peer[20]  lookupTimeSig:vector  ETV
vector 4980  Network.dyn_peer[11]  lookupHopsSig:vector  ETV
vector 4981  Network.dyn_peer[11]  lookupStabilitySig:vector  ETV
vector 4982  Network.dyn_peer[11]  lookupTimeSig:vector  ETV
vector 4983  Network.dyn_peer[12]  lookupHopsSig:vector  ETV
vector 4984  Network.dyn_peer[12]  lookupStabilitySig:vector  ETV
vector 4985  Network.dyn_peer[12]  lookupTimeSig:vector  ETV
vector 4992  Network.dyn_peer[15]  lookupHopsSig:vector  ETV
vector 4993  Network.dyn_peer[15]  lookupStabilitySig:vector  ETV
vector 4994  Network.dyn_peer[15]  lookupTimeSig:vector  ETV
vector 4965  Network.dyn_peer[6]  lookupHopsSig:vector  ETV
vector 4966  Network.dyn_peer[6]  lookupStabilitySig:vector  ETV
vector 4967  Network.dyn_peer[6]  lookupTimeSig:vector  ETV
vector 4974  Network.dyn_peer[9]  lookupHopsSig:vector  ETV
vector 4975  Network.dyn_peer[9]  lookupStabilitySig:vector  ETV
vector 4976  Network.dyn_peer[9]  lookupTimeSig:vector  ETV
vector 5004  Network.dyn_peer[19]  lookupHopsSig:vector  ETV
vector 5005  Network.dyn_peer[19]  lookupStabilitySig:vector  ETV
vector 5006  Network.dyn_peer[19]  lookupTimeSig:vector  ETV
vector 4950  Network.dyn_peer[1]  lookupHopsSig:vector  ETV
vector 4951  Network.dyn_peer[1]  lookupStabilitySig:vector  ETV
vector 4952  Network.dyn_peer[1]  lookupTimeSig:vector  ETV
vector 4953  Network.dyn_peer[2]  lookupHopsSig:vector  ETV
vector 4954  Network.dyn_peer[2]  lookupStabilitySig:vector  ETV
vector 4955  Network.dyn_peer[2]  lookupTimeSig:vector  ETV
vector 5019  Network.dyn_peer[24]  lookupHopsSig:vector  ETV
vector 5020  Network.dyn_peer[24]  lookupStabilitySig:vector  ETV
vector 5021  Network.dyn_peer[24]  lookupTimeSig:vector  ETV
vector 4998  Network.dyn_peer[17]  lookupHopsSig:vector  ETV
vector 4999  Network.dyn_peer[17]  lookupStabilitySig:vector  ETV
vector 5000  Network.dyn_peer[17]  lookupTimeSig:vector  ETV
vector 5028  Network.dyn_peer[27]  lookupHopsSig:vector  ETV
vector 5029  Network.dyn_peer[27]  lookupStabilitySig:vector  ETV
vector 5030  Network.dyn_peer[27]  lookupTimeSig:vector  ETV
vector 5031  Network.dyn_peer[28]  lookupHopsSig:vector  ETV
vector 5032  Network.dyn_peer[28]  lookupStabilitySig:vector  ETV
vector 5033  Network.dyn_peer[28]  lookupTimeSig:vector  ETV
vector 5034  Network.dyn_peer[29]  lookupHopsSig:vector  ETV
vector 5035  Network.dyn_peer[29]  lookupStabilitySig:vector  ETV
vector 5036  Network.dyn_peer[29]  lookupTimeSig:vector  ETV
vector 5037  Network.dyn_peer[30]  lookupHopsSig:vector  ETV
vector 5038  Network.dyn_peer[30]  lookupStabilitySig:vector  ETV
vector 5039  Network.dyn_peer[30]  lookupTimeSig:vector  ETV
vector 5010  Network.dyn_peer[21]  lookupHopsSig:vector  ETV
vector 5011  Network.dyn_peer[21]  lookupStabilitySig:vector  ETV
vector 5012  Network.dyn_peer[21]  lookupTimeSig:vector  ETV
vector 5016  Network.dyn_peer[23]  lookupHopsSig:vector  ETV
vector 5017  Network.dyn_peer[23]  lookupStabilitySig:vector  ETV
vector 5018  Network.dyn_peer[23]  lookupTimeSig:vector  ETV
vector 5040  Network.dyn_peer[31]  lookupHopsSig:vector  ETV
vector 5041  Network.dyn_peer[31]  lookupStabilitySig:vector  ETV
vector 5042  Network.dyn_peer[31]  lookupTimeSig:vector  ETV
vector 4962  Network.dyn_peer[5]  lookupHopsSig:vector  ETV
vector 4963  Network.dyn_peer[5]  lookupStabilitySig:vector  ETV
vector 4964  Network.dyn_peer[5]  lookupTimeSig:vector  ETV
vector 5022  Network.dyn_peer[25]  lookupHopsSig:vector  ETV
vector 5023  Network.dyn_peer[25]  lookupStabilitySig:vector  ETV
vector 5024  Network.dyn_peer[25]  lookupTimeSig:vector  ETV
vector 4995  Network.dyn_peer[16]  lookupHopsSig:vector  ETV
vector 4996  Network.dyn_peer[16]  lookupStabilitySig:vector  ETV
vector 4997  Network.dyn_peer[16]  lookupTimeSig:vector  ETV
vector 5001  Network.dyn_peer[18]  lookupHopsSig:vector  ETV
vector 5002  Network.dyn_peer[18]  lookupStabilitySig:vector  ETV
vector 5003  Network.dyn_peer[18]  lookupTimeSig:vector  ETV
vector 4986  Network.dyn_peer[13]  lookupHopsSig:vector  ETV
vector 4987  Network.dyn_peer[13]  lookupStabilitySig:vector  ETV
vector 4988  Network.dyn_peer[13]  lookupTimeSig:vector  ETV
vector 5013  Network.dyn_peer[22]  lookupHopsSig:vector  ETV
vector 5014  Network.dyn_peer[22]  lookupStabilitySig:vector  ETV
vector 5015  Network.dyn_peer[22]  lookupTimeSig:vector  ETV
vector 5025  Network.dyn_peer[26]  lookupHopsSig:vector  ETV
vector 5026  Network.dyn_peer[26]  lookupStabilitySig:vector  ETV
vector 5027  Network.dyn_peer[26]  lookupTimeSig:vector  ETV
vector 4968  Network.dyn_peer[7]  lookupHopsSig:vector  ETV
vector 4969  Network.dyn_peer[7]  lookupStabilitySig:vector  ETV
vector 4970  Network.dyn_peer[7]  lookupTimeSig:vector  ETV
4947	57	20.11	1
4947	202	20.31	1
4947	325	20.511743854067	1
4947	449	20.720311935021	1
4947	1060	21.430531167325	10
4947	1363	21.730531167325	2
4947	1676	21.958404871138	1
4947	2135	22.276350193935	3
4947	3050	22.976350193935	6
4947	3285	23.180251373074	1
4947	4343	23.881352022311	7
4947	4408	23.916703014543	2
4947	4789	24.186080928612	2
4947	4987	24.320316375621	3
4947	5197	24.508026128661	3
4947	5316	24.626571723535	3
4947	5546	24.836671723535	2
4947	5749	25.036671723535	1
4947	6367	25.638631833149	5
4947	6962	26.055425865952	4
4947	7997	26.955425865952	9
4947	8536	27.319598792433	12
4947	8868	27.564804795015	6
4947	9473	28.079677915252	5
4947	9712	28.279677915252	1
4947	10028	28.595152679054	2
4947	10745	29.205848326257	8
4947	11178	29.605953904516	3
4947	11385	29.815918657543	1
4947	11644	30.119048418654	2
4947	12191	30.609582681032	4
4947	12326	30.719682681032	1
4947	12894	31.119682681032	3
4947	14109	32.120346062851	10
4947	14314	32.260843188649	10
4947	14507	32.429534321668	2
4947	14661	32.566522196601	2
4947	15158	33.129808109729	6
4947	15632	33.649421771483	5
4947	16112	34.081811766969	1
4947	16508	34.449421771483	7
4947	16904	34.768624548292	3
4947	17997	35.768624548292	9
4947	18329	36.077184016836	2
4947	18788	36.522442655219	5
4947	19483	37.186880112389	12
4947	19708	37.394473187167	1
4947	19770	37.425037451184	8
4947	20374	37.85148398422	5
4947	20717	38.158677473643	2
4947	21409	38.775550709415	6
4947	21745	39.075550709415	2
4947	22012	39.292527998679	2
4947	22580	39.773326663895	1
4947	22605	39.783426663895	0
4947	23707	40.583426663895	7
4947	23899	40.701673063408	1
4947	25041	41.601673063408	10
4947	25666	42.111773063408	5
4947	26397	42.711773063408	7
4947	27984	43.915169416154	13
4947	28636	44.427909807358	7
4947	29011	44.727909807358	2
4947	29483	45.236188078948	4
4947	29664	45.446008720415	1
4947	30365	46.066046085232	6
4947	31590	47.138483203649	6
4947	31927	47.438483203649	3
4947	32565	47.951100829338	4
4947	32848	48.165837914171	2
4947	33438	48.765837914171	5
4947	34616	49.868015430181	10
4947	34669	49.883921979693	0
4947	35099	50.283921979693	4
4947	35709	50.889353549458	7
4947	36093	51.295641128223	3
4947	36646	51.811987351921	4
4947	36699	51.85878620275	4
4947	36842	51.969188864693	1
4947	37627	52.569188864693	5
4947	37849	52.770716528967	1
4947	38303	53.171406640682	3
4947	38350	53.200704349617	1
4947	38554	53.374030797736	1
4947	38845	53.593703613256	2
4947	39591	54.193703613256	6
4947	41033	55.247130118419	3
4947	41373	55.447130118419	1
4947	41969	55.856788239773	3
4947	42480	56.265345421825	3
4947	42941	56.653089465261	3
4947	43297	56.956644308559	2
4947	43840	57.365390184789	10
4947	44153	57.582243532694	2
4947	45515	58.682243532694	10
4947	45762	58.891776992133	1
4947	45986	59.099813723623	1
4947	46219	59.303917336823	1
4947	46715	59.789157503501	4
4947	46760	59.816405051685	4
4947	46938	59.993732660861	1
4947	47295	60.313129086851	3
4947	47805	60.813129086851	5
4947	48429	61.315238635959	4
4947	48818	61.646178381699	8
4947	48974	61.77419145591	5
4947	49104	61.858743657257	1
4947	49496	62.174913908944	3
4947	50003	62.574913908944	3
4947	50405	62.940646856931	5
4947	50460	63.00677292047	2
4947	51129	63.522260537202	5
4947	51770	64.022260537202	4
4947	52555	64.786633382644	2
4947	52828	64.993252500337	1
4947	52872	65.031576689892	10
4947	53944	65.841733168168	8
4947	54394	66.341733168168	4
4947	54851	66.806781688165	3
4947	54941	66.850081571456	5
4947	55202	67.058076555879	1
4947	55267	67.11821341033	3
4947	55564	67.359228541402	2
4947	56181	67.877462887293	5
4947	56796	68.377462887293	4
4947	57122	68.679814876464	2
4947	57532	69.006923373012	2
4947	57634	69.08059566582	4
4947	58149	69.494342958206	3
4947	58559	69.807049489855	3
4947	60377	71.328862740853	3
4947	61628	72.328862740853	9
4947	61794	72.44858418719	1
4947	62333	72.84858418719	4
4947	62738	73.154420601844	2
4947	63182	73.566016359866	3
4947	63889	74.183150567676	6
4947	64150	74.383150567676	1
4947	64416	74.592424347093	1
4947	65257	75.195145535722	6
4947	65553	75.421969723654	7
4947	65647	75.498629402633	2
4947	66558	76.218594163684	7
4947	67856	77.218594163684	10
4947	68174	77.520544163491	2
4947	68970	78.231827471577	4
4947	69074	78.345949242424	9
4947	69796	78.935362905454	6
4947	70137	79.155909044225	8
4947	70557	79.472915160725	3
4947	71396	80.231932984028	1
4947	72542	81.148783825522	11
4947	73020	81.548783825522	3
4947	73527	81.963814253918	3
4947	74505	82.773914253918	8
4947	74754	82.973914253918	2
4947	75037	83.277317418757	2
4947	76159	84.09585832155	11
4947	76387	84.29585832155	1
4947	76801	84.609167902864	2
4947	77588	85.519842355234	9
4947	78786	86.519842355234	11
4947	79040	86.649283807045	3
4947	79080	86.695597874421	5
4947	79103	86.709638598252	0
4947	79600	87.109638598252	3
4947	80662	88.113502354072	9
4947	81212	88.639671677819	5
4947	81443	88.841026563085	2
4947	81559	88.896674225019	1
4947	82170	89.506774225019	6
4947	82947	90.302489680519	5
4947	83052	90.406774225019	8
4947	83067	90.409061925854	7
4947	83447	90.72818075956	3
4947	84149	91.32818075956	5
4947	84833	91.933393418559	5
4947	85073	92.223753585695	5
4947	85430	92.539384806273	6
4947	85724	92.84707623906	2
4947	85793	92.929629353655	7
4947	86337	93.340457432819	4
4947	87245	94.240457432819	8
4947	88171	95.048763463305	7
4947	88207	95.065086222173	7
4947	88385	95.173008937766	1
4947	88482	95.241347859149	1
4947	88626	95.365825395324	2
4947	90389	96.783106855096	17
4947	91613	97.783106855096	11
4947	92031	98.186842956007	4
4947	92533	98.588171887676	3
4947	92702	98.741453226132	7
4947	92804	98.831647987063	4
4947	93695	99.546296779617	7
4947	95190	100.84884968523	13
4947	95485	101.154669360886	2
4947	96309	101.960265651249	7
4947	96603	102.270365651249	3
4947	97011	102.670365651249	3
4947	97873	103.446669454126	4
4947	98089	103.652419445225	1
4947	98985	104.274867371454	6
4947	99831	104.906096297119	5
4947	100178	105.206096297119	2
4947	100446	105.423018868755	2
4947	101519	106.323018868755	8
4947	102056	106.724792186877	3
4947	102378	107.025091002693	2
4947	102919	107.503332472769	3
4947	103063	107.611969260848	10
4947	103180	107.705019449092	1
4947	103363	107.821695892406	1
4947	104038	108.421695892406	5
4947	104087	108.428207680244	1
4947	104308	108.57989848676	0
4947	105521	109.59539916304	11
4947	106832	110.69539916304	11
4947	107486	111.145753060074	2
4947	107762	111.40247449494	6
4947	107849	111.452307869866	2
4947	108766	112.067439527736	7
4947	109768	112.867439527736	8
4947	110750	113.662187431702	5
4947	110772	113.672271984609	7
4947	111029	113.885182724502	2
4947	111769	114.485182724502	5
4947	112456	114.985273160478	4
4947	112698	115.18695733729	1
4947	112986	115.492632825232	2
4947	114287	116.612618981987	12
4947	114645	117.012618981987	4
4947	114915	117.222718981987	2
4947	116018	118.122718981987	11
4947	116385	118.430709059935	2
4947	117197	119.007933069844	5
4947	117281	119.033534805681	5
4947	117773	119.411603948219	3
4947	118236	119.8241515275	4
4947	119497	120.827951818336	1
4947	119852	121.1241515275	14
4947	120755	121.843505692028	8
4947	121844	122.843505692028	9
4947	122367	123.34753287269	4
4947	122962	123.948001283607	6
4947	123015	123.983682103233	1
4947	123358	124.310638737252	3
4947	123646	124.513931535551	1
4947	123751	124.592309834232	6
4947	124052	124.851049422134	10
4947	124160	124.923713744034	3
4947	124870	125.540746648065	7
4947	125339	125.940746648065	3
4947	125576	126.147500083437	1
4947	126251	126.759625608259	7
4947	127608	127.972572368205	6
4947	127951	128.272572368205	2
4947	128233	128.481636222415	1
4947	128491	128.693694222898	2
4947	128914	129.096294708615	3
4947	129058	129.247888178043	3
4947	129537	129.657988178043	4
4947	130013	130.057988178043	3
4947	130641	130.56795643859	5
4947	130775	130.67805643859	1
4947	131438	131.281169086255	1
4947	132440	132.181169086255	8
4947	132878	132.589217120102	3
4947	133486	133.154377866201	5
4947	135415	134.864477866201	19
4947	136002	135.364477866201	4
4947	136372	135.666326502777	2
4947	136384	135.675794805799	2
4947	137016	136.17499969608	4
4947	137710	136.78509969608	7
4947	138011	137.08509969608	2
4947	138129	137.227332785339	2
4947	138254	137.431854890456	2
4948	57	20.11	0.875
4948	202	20.31	0.875
4948	325	20.511743854067	0.875
4948	449	20.720311935021	0.875
4948	1060	21.430531167325	-0.25
4948	1363	21.730531167325	0.75
4948	1676	21.958404871138	0.875
4948	2135	22.276350193935	0.625
4948	3050	22.976350193935	0.25
4948	3285	23.180251373074	0.875
4948	4343	23.881352022311	0.125
4948	4408	23.916703014543	0.75
4948	4789	24.186080928612	0.75
4948	4987	24.320316375621	0.625
4948	5197	24.508026128661	0.625
4948	5316	24.626571723535	0.625
4948	5546	24.836671723535	0.75
4948	5749	25.036671723535	0.875
4948	6367	25.638631833149	0.375
4948	6962	26.055425865952	0.5
4948	7997	26.955425865952	-0.125
4948	8536	27.319598792433	-0.5
4948	8868	27.564804795015	0.25
4948	9473	28.079677915252	0.375
4948	9712	28.279677915252	0.875
4948	10028	28.595152679054	0.75
4948	10745	29.205848326257	0
4948	11178	29.605953904516	0.625
4948	11385	29.815918657543	0.875
4948	11644	30.119048418654	0.75
4948	12191	30.609582681032	0.5
4948	12326	30.719682681032	0.875
4948	12894	31.119682681032	0.625
4948	14109	32.120346062851	-0.25
4948	14314	32.260843188649	-0.25
4948	14507	32.429534321668	0.75
4948	14661	32.566522196601	0.75
4948	15158	33.129808109729	0.25
4948	15632	33.649421771483	0.375
4948	16112	34.081811766969	0.875
4948	16508	34.449421771483	0.125
4948	16904	34.768624548292	0.625
4948	17997	35.768624548292	-0.125
4948	18329	36.077184016836	0.75
4948	18788	36.522442655219	0.375
4948	19483	37.186880112389	-0.5
4948	19708	37.394473187167	0.875
4948	19770	37.425037451184	0
4948	20374	37.85148398422	0.375
4948	20717	38.158677473643	0.75
4948	21409	38.775550709415	0.25
4948	21745	39.075550709415	0.75
4948	22012	39.292527998679	0.75
4948	22580	39.773326663895	0.875
4948	22605	39.783426663895	1
4948	23707	40.583426663895	0.125
4948	23899	40.701673063408	0.875
4948	25041	41.601673063408	-0.25
4948	25666	42.111773063408	0.375
4948	26397	42.711773063408	0.125
4948	27984	43.915169416154	-0.625
4948	28636	44.427909807358	0.125
4948	29011	44.727909807358	0.75
4948	29483	45.236188078948	0.5
4948	29664	45.446008720415	0.875
4948	30365	46.066046085232	0.25
4948	31590	47.138483203649	0.25
4948	31927	47.438483203649	0.625
4948	32565	47.951100829338	0.5
4948	32848	48.165837914171	0.75
4948	33438	48.765837914171	0.375
4948	34616	49.868015430181	-0.25
4948	34669	49.883921979693	1
4948	35099	50.283921979693	0.5
4948	35709	50.889353549458	0.125
4948	36093	51.295641128223	0.625
4948	36646	51.811987351921	0.5
4948	36699	51.85878620275	0.5
4948	36842	51.969188864693	0.875
4948	37627	52.569188864693	0.375
4948	37849	52.770716528967	0.875
4948	38303	53.171406640682	0.625
4948	38350	53.200704349617	0.875
4948	38554	53.374030797736	0.875
4948	38845	53.593703613256	0.75
4948	39591	54.193703613256	0.25
4948	41033	55.247130118419	0.625
4948	41373	55.447130118419	0.875
4948	41969	55.856788239773	0.625
4948	42480	56.265345421825	0.625
4948	42941	56.653089465261	0.625
4948	43297	56.956644308559	0.75
4948	43840	57.365390184789	-0.25
4948	44153	57.582243532694	0.75
4948	45515	58.682243532694	-0.25
4948	45762	58.891776992133	0.875
4948	45986	59.099813723623	0.875
4948	46219	59.303917336823	0.875
4948	46715	59.789157503501	0.5
4948	46760	59.816405051685	0.5
4948	46938	59.993732660861	0.875
4948	47295	60.313129086851	0.625
4948	47805	60.813129086851	0.375
4948	48429	61.315238635959	0.5
4948	48818	61.646178381699	0
4948	48974	61.77419145591	0.375
4948	49104	61.858743657257	0.875
4948	49496	62.174913908944	0.625
4948	50003	62.574913908944	0.625
4948	50405	62.940646856931	0.375
4948	50460	63.00677292047	0.75
4948	51129	63.522260537202	0.375
4948	51770	64.022260537202	0.5
4948	52555	64.786633382644	0.75
4948	52828	64.993252500337	0.875
4948	52872	65.031576689892	-0.25
4948	53944	65.841733168168	0
4948	54394	66.341733168168	0.5
4948	54851	66.806781688165	0.625
4948	54941	66.850081571456	0.375
4948	55202	67.058076555879	0.875
4948	55267	67.11821341033	0.625
4948	55564	67.359228541402	0.75
4948	56181	67.877462887293	0.375
4948	56796	68.377462887293	0.5
4948	57122	68.679814876464	0.75
4948	57532	69.006923373012	0.75
4948	57634	69.08059566582	0.5
4948	58149	69.494342958206	0.625
4948	58559	69.807049489855	0.625
4948	60377	71.328862740853	0.625
4948	61628	72.328862740853	-0.125
4948	61794	72.44858418719	0.875
4948	62333	72.84858418719	0.5
4948	62738	73.154420601844	0.75
4948	63182	73.566016359866	0.625
4948	63889	74.183150567676	0.25
4948	64150	74.383150567676	0.875
4948	64416	74.592424347093	0.875
4948	65257	75.195145535722	0.25
4948	65553	75.421969723654	0.125
4948	65647	75.498629402633	0.75
4948	66558	76.218594163684	0.125
4948	67856	77.218594163684	-0.25
4948	68174	77.520544163491	0.75
4948	68970	78.231827471577	0.5
4948	69074	78.345949242424	-0.125
4948	69796	78.935362905454	0.25
4948	70137	79.155909044225	0
4948	70557	79.472915160725	0.625
4948	71396	80.231932984028	0.875
4948	72542	81.148783825522	-0.375
4948	73020	81.548783825522	0.625
4948	73527	81.963814253918	0.625
4948	74505	82.773914253918	0
4948	74754	82.973914253918	0.75
4948	75037	83.277317418757	0.75
4948	76159	84.09585832155	-0.375
4948	76387	84.29585832155	0.875
4948	76801	84.609167902864	0.75
4948	77588	85.519842355234	-0.125
4948	78786	86.519842355234	-0.375
4948	79040	86.649283807045	0.625
4948	79080	86.695597874421	0.375
4948	79103	86.709638598252	1
4948	79600	87.109638598252	0.625
4948	80662	88.113502354072	-0.125
4948	81212	88.639671677819	0.375
4948	81443	88.841026563085	0.75
4948	81559	88.896674225019	0.875
4948	82170	89.506774225019	0.25
4948	82947	90.302489680519	0.375
4948	83052	90.406774225019	0
4948	83067	90.409061925854	0.125
4948	83447	90.72818075956	0.625
4948	84149	91.32818075956	0.375
4948	84833	91.933393418559	0.375
4948	85073	92.223753585695	0.375
4948	85430	92.539384806273	0.25
4948	85724	92.84707623906	0.75
4948	85793	92.929629353655	0.125
4948	86337	93.340457432819	0.5
4948	87245	94.240457432819	0
4948	88171	95.048763463305	0.125
4948	88207	95.065086222173	0.125
4948	88385	95.173008937766	0.875
4948	88482	95.241347859149	0.875
4948	88626	95.365825395324	0.75
4948	90389	96.783106855096	-1.125
4948	91613	97.783106855096	-0.375
4948	92031	98.186842956007	0.5
4948	92533	98.588171887676	0.625
4948	92702	98.741453226132	0.125
4948	92804	98.831647987063	0.5
4948	93695	99.546296779617	0.125
4948	95190	100.84884968523	-0.625
4948	95485	101.154669360886	0.75
4948	96309	101.960265651249	0.125
4948	96603	102.270365651249	0.625
4948	97011	102.670365651249	0.625
4948	97873	103.446669454126	0.5
4948	98089	103.652419445225	0.875
4948	98985	104.274867371454	0.25
4948	99831	104.906096297119	0.375
4948	100178	105.206096297119	0.75
4948	100446	105.423018868755	0.75
4948	101519	106.323018868755	0
4948	102056	106.724792186877	0.625
4948	102378	107.025091002693	0.75
4948	102919	107.503332472769	0.625
4948	103063	107.611969260848	-0.25
4948	103180	107.705019449092	0.875
4948	103363	107.821695892406	0.875
4948	104038	108.421695892406	0.375
4948	104087	108.428207680244	0.875
4948	104308	108.57989848676	1
4948	105521	109.59539916304	-0.375
4948	106832	110.69539916304	-0.375
4948	107486	111.145753060074	0.75
4948	107762	111.40247449494	0.25
4948	107849	111.452307869866	0.75
4948	108766	112.067439527736	0.125
4948	109768	112.867439527736	0
4948	110750	113.662187431702	0.375
4948	110772	113.672271984609	0.125
4948	111029	113.885182724502	0.75
4948	111769	114.485182724502	0.375
4948	112456	114.985273160478	0.5
4948	112698	115.18695733729	0.875
4948	112986	115.492632825232	0.75
4948	114287	116.612618981987	-0.5
4948	114645	117.012618981987	0.5
4948	114915	117.222718981987	0.75
4948	116018	118.122718981987	-0.375
4948	116385	118.430709059935	0.75
4948	117197	119.007933069844	0.375
4948	117281	119.033534805681	0.375
4948	117773	119.411603948219	0.625
4948	118236	119.8241515275	0.5
4948	119497	120.827951818336	0.875
4948	119852	121.1241515275	-0.75
4948	120755	121.843505692028	0
4948	121844	122.843505692028	-0.125
4948	122367	123.34753287269	0.5
4948	122962	123.948001283607	0.25
4948	123015	123.983682103233	0.875
4948	123358	124.310638737252	0.625
4948	123646	124.513931535551	0.875
4948	123751	124.592309834232	0.25
4948	124052	124.851049422134	-0.25
4948	124160	124.923713744034	0.625
4948	124870	125.540746648065	0.125
4948	125339	125.940746648065	0.625
4948	125576	126.147500083437	0.875
4948	126251	126.759625608259	0.125
4948	127608	127.972572368205	0.25
4948	127951	128.272572368205	0.75
4948	128233	128.481636222415	0.875
4948	128491	128.693694222898	0.75
4948	128914	129.096294708615	0.625
4948	129058	129.247888178043	0.625
4948	129537	129.657988178043	0.5
4948	130013	130.057988178043	0.625
4948	130641	130.56795643859	0.375
4948	130775	130.67805643859	0.875
4948	131438	131.281169086255	0.875
4948	132440	132.181169086255	0
4948	132878	132.589217120102	0.625
4948	133486	133.154377866201	0.375
4948	135415	134.864477866201	-1.375
4948	136002	135.364477866201	0.5
4948	136372	135.666326502777	0.75
4948	136384	135.675794805799	0.75
4948	137016	136.17499969608	0.5
4948	137710	136.78509969608	0.125
4948	138011	137.08509969608	0.75
4948	138129	137.227332785339	0.75
4948	138254	137.431854890456	0.75
4949	57	20.11	0.1
4949	202	20.31	0.2
4949	325	20.511743854067	0.2
4949	449	20.720311935021	0.2
4949	1060	21.430531167325	0.7
4949	1363	21.730531167325	0.3
4949	1676	21.958404871138	0.2
4949	2135	22.276350193935	0.3
4949	3050	22.976350193935	0.7
4949	3285	23.180251373074	0.2
4949	4343	23.881352022311	0.7
4949	4408	23.916703014543	0.3
4949	4789	24.186080928612	0.3
4949	4987	24.320316375621	0.4
4949	5197	24.508026128661	0.4
4949	5316	24.626571723535	0.4
4949	5546	24.836671723535	0.2
4949	5749	25.036671723535	0.2
4949	6367	25.638631833149	0.6
4949	6962	26.055425865952	0.4
4949	7997	26.955425865952	0.9
4949	8536	27.319598792433	1
4949	8868	27.564804795015	0.6
4949	9473	28.079677915252	0.5
4949	9712	28.279677915252	0.2
4949	10028	28.595152679054	0.3
4949	10745	29.205848326257	0.6
4949	11178	29.605953904516	0.4
4949	11385	29.815918657543	0.2
4949	11644	30.119048418654	0.3
4949	12191	30.609582681032	0.5
4949	12326	30.719682681032	0.1
4949	12894	31.119682681032	0.4
4949	14109	32.120346062851	1
4949	14314	32.260843188649	1.1
4949	14507	32.429534321668	0.3
4949	14661	32.566522196601	0.3
4949	15158	33.129808109729	0.7
4949	15632	33.649421771483	0.5
4949	16112	34.081811766969	0.2
4949	16508	34.449421771483	0.8
4949	16904	34.768624548292	0.3
4949	17997	35.768624548292	1
4949	18329	36.077184016836	0.3
4949	18788	36.522442655219	0.5
4949	19483	37.186880112389	1.1
4949	19708	37.394473187167	0.2
4949	19770	37.425037451184	0.9
4949	20374	37.85148398422	0.4
4949	20717	38.158677473643	0.3
4949	21409	38.775550709415	0.6
4949	21745	39.075550709415	0.3
4949	22012	39.292527998679	0.2
4949	22580	39.773326663895	0.2
4949	22605	39.783426663895	0
4949	23707	40.583426663895	0.8
4949	23899	40.701673063408	0.1
4949	25041	41.601673063408	0.9
4949	25666	42.111773063408	0.5
4949	26397	42.711773063408	0.6
4949	27984	43.915169416154	1.2
4949	28636	44.427909807358	0.5
4949	29011	44.727909807358	0.3
4949	29483	45.236188078948	0.5
4949	29664	45.446008720415	0.2
4949	30365	46.066046085232	0.6
4949	31590	47.138483203649	0.5
4949	31927	47.438483203649	0.3
4949	32565	47.951100829338	0.5
4949	32848	48.165837914171	0.2
4949	33438	48.765837914171	0.6
4949	34616	49.868015430181	1.1
4949	34669	49.883921979693	0
4949	35099	50.283921979693	0.4
4949	35709	50.889353549458	0.6
4949	36093	51.295641128223	0.4
4949	36646	51.811987351921	0.5
4949	36699	51.85878620275	0.5
4949	36842	51.969188864693	0.1
4949	37627	52.569188864693	0.6
4949	37849	52.770716528967	0.2
4949	38303	53.171406640682	0.4
4949	38350	53.200704349617	0.2
4949	38554	53.374030797736	0.2
4949	38845	53.593703613256	0.2
4949	39591	54.193703613256	0.6
4949	41033	55.247130118419	0.3
4949	41373	55.447130118419	0.2
4949	41969	55.856788239773	0.4
4949	42480	56.265345421825	0.4
4949	42941	56.653089465261	0.4
4949	43297	56.956644308559	0.3
4949	43840	57.365390184789	1.1
4949	44153	57.582243532694	0.2
4949	45515	58.682243532694	1.1
4949	45762	58.891776992133	0.2
4949	45986	59.099813723623	0.2
4949	46219	59.303917336823	0.2
4949	46715	59.789157503501	0.5
4949	46760	59.816405051685	0.5
4949	46938	59.993732660861	0.2
4949	47295	60.313129086851	0.3
4949	47805	60.813129086851	0.5
4949	48429	61.315238635959	0.5
4949	48818	61.646178381699	0.7
4949	48974	61.77419145591	0.6
4949	49104	61.858743657257	0.2
4949	49496	62.174913908944	0.3
4949	50003	62.574913908944	0.4
4949	50405	62.940646856931	0.6
4949	50460	63.00677292047	0.3
4949	51129	63.522260537202	0.5
4949	51770	64.022260537202	0.5
4949	52555	64.786633382644	0.3
4949	52828	64.993252500337	0.2
4949	52872	65.031576689892	1
4949	53944	65.841733168168	0.8
4949	54394	66.341733168168	0.5
4949	54851	66.806781688165	0.4
4949	54941	66.850081571456	0.5
4949	55202	67.058076555879	0.2
4949	55267	67.11821341033	0.3
4949	55564	67.359228541402	0.3
4949	56181	67.877462887293	0.5
4949	56796	68.377462887293	0.5
4949	57122	68.679814876464	0.3
4949	57532	69.006923373012	0.3
4949	57634	69.08059566582	0.4
4949	58149	69.494342958206	0.4
4949	58559	69.807049489855	0.3
4949	60377	71.328862740853	0.3
4949	61628	72.328862740853	1
4949	61794	72.44858418719	0.1
4949	62333	72.84858418719	0.4
4949	62738	73.154420601844	0.3
4949	63182	73.566016359866	0.4
4949	63889	74.183150567676	0.6
4949	64150	74.383150567676	0.2
4949	64416	74.592424347093	0.2
4949	65257	75.195145535722	0.6
4949	65553	75.421969723654	0.7
4949	65647	75.498629402633	0.3
4949	66558	76.218594163684	0.7
4949	67856	77.218594163684	1
4949	68174	77.520544163491	0.3
4949	68970	78.231827471577	0.5
4949	69074	78.345949242424	0.8
4949	69796	78.935362905454	0.7
4949	70137	79.155909044225	0.8
4949	70557	79.472915160725	0.3
4949	71396	80.231932984028	0.2
4949	72542	81.148783825522	0.9
4949	73020	81.548783825522	0.4
4949	73527	81.963814253918	0.4
4949	74505	82.773914253918	0.8
4949	74754	82.973914253918	0.2
4949	75037	83.277317418757	0.3
4949	76159	84.09585832155	0.8
4949	76387	84.29585832155	0.2
4949	76801	84.609167902864	0.3
4949	77588	85.519842355234	0.9
4949	78786	86.519842355234	1
4949	79040	86.649283807045	0.4
4949	79080	86.695597874421	0.6
4949	79103	86.709638598252	0
4949	79600	87.109638598252	0.4
4949	80662	88.113502354072	1
4949	81212	88.639671677819	0.5
4949	81443	88.841026563085	0.2
4949	81559	88.896674225019	0.2
4949	82170	89.506774225019	0.6
4949	82947	90.302489680519	0.4
4949	83052	90.406774225019	0.9
4949	83067	90.409061925854	0.5
4949	83447	90.72818075956	0.3
4949	84149	91.32818075956	0.6
4949	84833	91.933393418559	0.6
4949	85073	92.223753585695	0.6
4949	85430	92.539384806273	0.6
4949	85724	92.84707623906	0.3
4949	85793	92.929629353655	0.7
4949	86337	93.340457432819	0.4
4949	87245	94.240457432819	0.9
4949	88171	95.048763463305	0.8
4949	88207	95.065086222173	0.8
4949	88385	95.173008937766	0.1
4949	88482	95.241347859149	0.1
4949	88626	95.365825395324	0.3
4949	90389	96.783106855096	1.4
4949	91613	97.783106855096	1
4949	92031	98.186842956007	0.4
4949	92533	98.588171887676	0.4
4949	92702	98.741453226132	0.8
4949	92804	98.831647987063	0.5
4949	93695	99.546296779617	0.7
4949	95190	100.84884968523	1.3
4949	95485	101.154669360886	0.3
4949	96309	101.960265651249	0.8
4949	96603	102.270365651249	0.3
4949	97011	102.670365651249	0.4
4949	97873	103.446669454126	0.5
4949	98089	103.652419445225	0.2
4949	98985	104.274867371454	0.6
4949	99831	104.906096297119	0.4
4949	100178	105.206096297119	0.3
4949	100446	105.423018868755	0.2