version 2
run Stability-112-20130526-18:54:38-1898
attr configname Stability
attr datetime 20130526-18:54:38
attr experiment Stability
attr inifile omnetpp.ini
attr iterationvars $0=1e-5
attr iterationvars2 "$0=1e-5, $repetition=2"
attr measurement $0=1e-5
attr network Network
attr processid 1898
attr repetition 2
attr replication #2
attr resultdir results
attr runnumber 112
attr seedset 112

vector 10960  Network.churner  inGoingSizeSig:vector  ETV
vector 10942  Network.dyn_peer[26]  lookupHopsSig:vector  ETV
vector 10943  Network.dyn_peer[26]  lookupStabilitySig:vector  ETV
vector 10944  Network.dyn_peer[26]  lookupTimeSig:vector  ETV
vector 10948  Network.dyn_peer[28]  lookupHopsSig:vector  ETV
vector 10949  Network.dyn_peer[28]  lookupStabilitySig:vector  ETV
vector 10950  Network.dyn_peer[28]  lookupTimeSig:vector  ETV
vector 10954  Network.dyn_peer[30]  lookupHopsSig:vector  ETV
vector 10955  Network.dyn_peer[30]  lookupStabilitySig:vector  ETV
vector 10956  Network.dyn_peer[30]  lookupTimeSig:vector  ETV
vector 10876  Network.dyn_peer[4]  lookupHopsSig:vector  ETV
vector 10877  Network.dyn_peer[4]  lookupStabilitySig:vector  ETV
vector 10878  Network.dyn_peer[4]  lookupTimeSig:vector  ETV
vector 10879  Network.dyn_peer[5]  lookupHopsSig:vector  ETV
vector 10880  Network.dyn_peer[5]  lookupStabilitySig:vector  ETV
vector 10881  Network.dyn_peer[5]  lookupTimeSig:vector  ETV
vector 10882  Network.dyn_peer[6]  lookupHopsSig:vector  ETV
vector 10883  Network.dyn_peer[6]  lookupStabilitySig:vector  ETV
vector 10884  Network.dyn_peer[6]  lookupTimeSig:vector  ETV
vector 10885  Network.dyn_peer[7]  lookupHopsSig:vector  ETV
vector 10886  Network.dyn_peer[7]  lookupStabilitySig:vector  ETV
vector 10887  Network.dyn_peer[7]  lookupTimeSig:vector  ETV
vector 10897  Network.dyn_peer[11]  lookupHopsSig:vector  ETV
vector 10898  Network.dyn_peer[11]  lookupStabilitySig:vector  ETV
vector 10899  Network.dyn_peer[11]  lookupTimeSig:vector  ETV
vector 10906  Network.dyn_peer[14]  lookupHopsSig:vector  ETV
vector 10907  Network.dyn_peer[14]  lookupStabilitySig:vector  ETV
vector 10908  Network.dyn_peer[14]  lookupTimeSig:vector  ETV
vector 10927  Network.dyn_peer[21]  lookupHopsSig:vector  ETV
vector 10928  Network.dyn_peer[21]  lookupStabilitySig:vector  ETV
vector 10929  Network.dyn_peer[21]  lookupTimeSig:vector  ETV
vector 10936  Network.dyn_peer[24]  lookupHopsSig:vector  ETV
vector 10937  Network.dyn_peer[24]  lookupStabilitySig:vector  ETV
vector 10938  Network.dyn_peer[24]  lookupTimeSig:vector  ETV
vector 10945  Network.dyn_peer[27]  lookupHopsSig:vector  ETV
vector 10946  Network.dyn_peer[27]  lookupStabilitySig:vector  ETV
vector 10947  Network.dyn_peer[27]  lookupTimeSig:vector  ETV
vector 10867  Network.dyn_peer[1]  lookupHopsSig:vector  ETV
vector 10868  Network.dyn_peer[1]  lookupStabilitySig:vector  ETV
vector 10869  Network.dyn_peer[1]  lookupTimeSig:vector  ETV
vector 10873  Network.dyn_peer[3]  lookupHopsSig:vector  ETV
vector 10874  Network.dyn_peer[3]  lookupStabilitySig:vector  ETV
vector 10875  Network.dyn_peer[3]  lookupTimeSig:vector  ETV
vector 10900  Network.dyn_peer[12]  lookupHopsSig:vector  ETV
vector 10901  Network.dyn_peer[12]  lookupStabilitySig:vector  ETV
vector 10902  Network.dyn_peer[12]  lookupTimeSig:vector  ETV
vector 10903  Network.dyn_peer[13]  lookupHopsSig:vector  ETV
vector 10904  Network.dyn_peer[13]  lookupStabilitySig:vector  ETV
vector 10905  Network.dyn_peer[13]  lookupTimeSig:vector  ETV
vector 10909  Network.dyn_peer[15]  lookupHopsSig:vector  ETV
vector 10910  Network.dyn_peer[15]  lookupStabilitySig:vector  ETV
vector 10911  Network.dyn_peer[15]  lookupTimeSig:vector  ETV
vector 10912  Network.dyn_peer[16]  lookupHopsSig:vector  ETV
vector 10913  Network.dyn_peer[16]  lookupStabilitySig:vector  ETV
vector 10914  Network.dyn_peer[16]  lookupTimeSig:vector  ETV
vector 10918  Network.dyn_peer[18]  lookupHopsSig:vector  ETV
vector 10919  Network.dyn_peer[18]  lookupStabilitySig:vector  ETV
vector 10920  Network.dyn_peer[18]  lookupTimeSig:vector  ETV
vector 10921  Network.dyn_peer[19]  lookupHopsSig:vector  ETV
vector 10922  Network.dyn_peer[19]  lookupStabilitySig:vector  ETV
vector 10923  Network.dyn_peer[19]  lookupTimeSig:vector  ETV
vector 10930  Network.dyn_peer[22]  lookupHopsSig:vector  ETV
vector 10931  Network.dyn_peer[22]  lookupStabilitySig:vector  ETV
vector 10932  Network.dyn_peer[22]  lookupTimeSig:vector  ETV
vector 10933  Network.dyn_peer[23]  lookupHopsSig:vector  ETV
vector 10934  Network.dyn_peer[23]  lookupStabilitySig:vector  ETV
vector 10935  Network.dyn_peer[23]  lookupTimeSig:vector  ETV
vector 10951  Network.dyn_peer[29]  lookupHopsSig:vector  ETV
vector 10952  Network.dyn_peer[29]  lookupStabilitySig:vector  ETV
vector 10953  Network.dyn_peer[29]  lookupTimeSig:vector  ETV
vector 10957  Network.dyn_peer[31]  lookupHopsSig:vector  ETV
vector 10958  Network.dyn_peer[31]  lookupStabilitySig:vector  ETV
vector 10959  Network.dyn_peer[31]  lookupTimeSig:vector  ETV
vector 10870  Network.dyn_peer[2]  lookupHopsSig:vector  ETV
vector 10871  Network.dyn_peer[2]  lookupStabilitySig:vector  ETV
vector 10872  Network.dyn_peer[2]  lookupTimeSig:vector  ETV
vector 10888  Network.dyn_peer[8]  lookupHopsSig:vector  ETV
vector 10889  Network.dyn_peer[8]  lookupStabilitySig:vector  ETV
vector 10890  Network.dyn_peer[8]  lookupTimeSig:vector  ETV
vector 10891  Network.dyn_peer[9]  lookupHopsSig:vector  ETV
vector 10892  Network.dyn_peer[9]  lookupStabilitySig:vector  ETV
vector 10893  Network.dyn_peer[9]  lookupTimeSig:vector  ETV
vector 10894  Network.dyn_peer[10]  lookupHopsSig:vector  ETV
vector 10895  Network.dyn_peer[10]  lookupStabilitySig:vector  ETV
vector 10896  Network.dyn_peer[10]  lookupTimeSig:vector  ETV
vector 10924  Network.dyn_peer[20]  lookupHopsSig:vector  ETV
vector 10925  Network.dyn_peer[20]  lookupStabilitySig:vector  ETV
vector 10926  Network.dyn_peer[20]  lookupTimeSig:vector  ETV
vector 10915  Network.dyn_peer[17]  lookupHopsSig:vector  ETV
vector 10916  Network.dyn_peer[17]  lookupStabilitySig:vector  ETV
vector 10917  Network.dyn_peer[17]  lookupTimeSig:vector  ETV
vector 10939  Network.dyn_peer[25]  lookupHopsSig:vector  ETV
vector 10940  Network.dyn_peer[25]  lookupStabilitySig:vector  ETV
vector 10941  Network.dyn_peer[25]  lookupTimeSig:vector  ETV
vector 10864  Network.dyn_peer[0]  lookupHopsSig:vector  ETV
vector 10865  Network.dyn_peer[0]  lookupStabilitySig:vector  ETV
vector 10866  Network.dyn_peer[0]  lookupTimeSig:vector  ETV
10864	445	20.60000001	6
10864	870	21.10000001	4
10864	1027	21.205762703635	0
10864	1921	22.011712135332	7
10864	1929	22.013014124459	7
10864	2304	22.31487138389	2
10864	2322	22.317766890671	2
10864	2326	22.318366760943	2
10864	2678	22.620006138157	2
10864	2701	22.626172279602	2
10864	2705	22.627065640332	2
10864	2962	22.829142421773	1
10864	2969	22.831429622317	1
10864	2975	22.835261499607	1
10864	3731	23.424060794753	8
10864	3920	23.534361868354	7
10864	4105	23.640957633126	8
10864	4107	23.64099312635	8
10864	4940	24.34109313635	7
10864	5329	24.74109313635	3
10864	6000	25.246953347589	5
10864	6782	25.953320910623	6
10864	7367	26.471831322018	4
10864	7390	26.536489938879	10
10864	7894	26.94178399376	4
10864	8521	27.44178399376	4
10864	8781	27.643324101563	1
10864	9179	27.949841875592	2
10864	10612	29.051365087495	12
10864	11696	29.870094619126	3
10864	12596	30.570194629126	7
10864	13074	30.970194629126	3
10864	13946	31.700369843663	6
10864	14389	32.084761416858	6
10864	14561	32.205169511592	4
10864	14655	32.2898683225	1
10864	14851	32.453590531049	4
10864	17458	34.56270019236	22
10864	18155	35.06270019236	4
10864	18376	35.263690268476	1
10864	18702	35.568712165711	2
10864	19192	35.980933614299	3
10864	19678	36.383483626744	4
10864	19923	36.583483626744	1
10864	20955	37.390273039675	9
10864	21838	38.090273039675	6
10864	23211	39.156054976448	4
10864	23549	39.391910815191	13
10864	24058	39.901905705212	4
10864	24322	40.104213364776	2
10864	25852	41.304213364776	12
10864	26207	41.60647833832	2
10864	26483	41.811066946558	2
10864	27009	42.213867436105	4
10864	28888	43.784191869267	8
10864	29593	44.384191869267	5
10864	30056	44.791490718182	3
10864	30719	45.392364212427	7
10864	31266	45.892364212427	4
10864	31977	46.494803155296	5
10864	32325	46.812352131633	2
10864	32817	47.143222931912	3
10864	33233	47.443222931912	2
10864	33836	47.925234117984	6
10864	34487	48.434312863544	5
10864	36082	49.769462402944	9
10864	36428	50.069462402944	2
10864	36930	50.469562412944	4
10864	37438	50.869562412944	3
10864	37590	50.982639801211	0
10864	37982	51.295686243776	2
10864	38101	51.400073137741	6
10864	38371	51.600757297597	2
10864	38706	51.900757297597	2
10864	38931	52.100857307597	2
10864	39163	52.304665207863	1
10864	39623	52.711899169669	3
10864	40058	53.115775548924	3
10864	40610	53.61968065979	5
10864	40932	53.921008205134	2
10864	41002	53.997091116096	7
10864	41032	54.005298216115	0
10864	41881	54.705298216115	6
10864	42158	54.911707519013	6
10864	42494	55.209934397351	6
10864	42497	55.210456353507	6
10864	42605	55.312936258823	3
10864	42956	55.612847972637	3
10864	42976	55.618282364489	3
10864	43306	55.921114406847	3
10864	44127	56.63277033224	1
10864	44225	56.721114406847	7
10864	44455	56.929180135611	1
10864	44486	56.97179450143	1
10864	46344	58.435589293287	10
10864	46755	58.742791437091	2
10864	47017	58.949392984105	1
10864	47962	59.808163380411	5
10864	48047	59.852604833217	9
10864	48349	60.114342572246	2
10864	48662	60.355519713475	5
10864	48942	60.558623537702	1
10864	49353	60.864011089802	3
10864	49937	61.364011089802	4
10864	50266	61.67196197391	3
10864	50621	61.981042759275	2
10864	50717	62.068995575474	3
10864	51051	62.376792087973	3
10864	51300	62.576792087973	1
10864	51610	62.811320235592	1
10864	51780	63.011394610034	1
10864	52348	63.512709020526	6
10864	53296	64.312709020526	8
10864	53548	64.515820930065	1
10864	54180	65.017759562505	5
10864	54578	65.389269578286	5
10864	54861	65.594348599441	1
10864	54874	65.611111282075	5
10864	54900	65.630962536365	6
10864	55255	65.93765120879	3
10864	55617	66.23765120879	2
10864	56355	66.938615152153	7
10864	57624	67.942444306676	11
10864	57931	68.144724685068	1
10864	58450	68.558872581589	3
10864	59408	69.161072860338	6
10864	59665	69.362658608324	1
10864	59786	69.44781583312	7
10864	60024	69.669127478853	1
10864	60158	69.771979066823	3
10864	60178	69.776224128692	0
10864	60926	70.476324138692	7
10864	61163	70.676324138692	1
10864	61380	70.880364878947	1
10864	61845	71.281253645127	3
10864	62097	71.495948381369	1
10864	63119	72.396230731586	12
10864	64167	73.196230731586	9
10864	64696	73.701196100744	4
10864	64857	73.826864023367	1
10864	64958	73.911192070236	1
10864	65178	74.136820748338	2
10864	65253	74.218071697065	2
10864	65729	74.626818947355	5
10864	66161	75.026818947355	3
10864	66579	75.434829255024	3
10864	66948	75.734929265024	3
10864	67434	76.234929265024	4
10864	67764	76.540274692671	2
10864	69034	77.553511984025	10
10864	69386	77.859060478476	2
10864	69929	78.367775950911	4
10864	70080	78.524522754948	4
10864	70575	79.034045438819	7
10864	70969	79.434045438819	3
10864	71867	80.241705643845	7
10864	72280	80.54398325384	5
10864	72287	80.550698662629	2
10864	72533	80.783397819336	4
10864	72586	80.853541790986	2
10864	72600	80.856688813539	2
10864	72866	81.059030301851	2
10864	73535	81.659030301851	5
10864	74046	82.066616423188	5
10864	74462	82.408251635507	8
10864	74481	82.417342065935	1
10864	74640	82.574642424164	5
10864	74780	82.674944963303	1
10864	75456	83.274944963303	5
10864	76266	84.036526809047	2
10864	76523	84.240794410015	1
10864	76576	84.284513807982	9
10864	76617	84.336618972706	1
10864	76715	84.440880091726	1
10864	77081	84.786319918109	4
10864	77315	84.995750378109	2
10864	77525	85.195750378109	1
10864	77906	85.503790133965	3
10864	78088	85.704679796543	1
10864	78830	86.412632823333	7
10864	79507	87.027759743307	9
10864	79612	87.115690152866	7
10864	80007	87.436643188586	3
10864	80115	87.521750021038	3
10864	80790	88.021850031038	6
10864	81532	88.621850031038	5
10864	82374	89.296180566422	2
10864	82800	89.696180566422	3
10864	83242	90.002032974674	2
10864	83620	90.297381975189	5
10864	84314	90.883566826188	8
10864	85073	91.488654177705	6
10864	85323	91.688654177705	1
10864	85986	92.191666177463	4
10864	86166	92.299249579271	1
10864	87215	93.299249579271	9
10864	88007	94.002909530592	6
10864	88307	94.207406365259	6
10864	88312	94.207564511168	1
10864	89157	94.807664521168	7
10864	89885	95.307664521168	4
10864	90486	95.814209222324	4
10864	90508	95.825409309164	4
10864	90926	96.232090036486	4
10864	90928	96.232162247	4
10864	91412	96.632262257	4
10864	91700	96.932262257	2
10864	92067	97.234022016103	3
10864	92119	97.3147933497	2
10864	92770	97.818126277418	5
10864	93813	98.718126277418	8
10864	93961	98.8149933597	1
10864	95370	99.920976342863	12
10864	96022	100.520976342863	5
10864	96484	100.921425944773	3
10864	96709	101.082732523582	2
10864	97154	101.491631211077	4
10864	97499	101.791631211077	2
10864	97895	102.107531576115	2
10864	99181	103.307631586115	12
10864	99813	103.907631586115	5
10864	100876	104.913884733873	10
10864	101065	105.108922007152	3
10864	101375	105.322732739341	3
10864	101754	105.61788209555	6
10864	101770	105.622038881068	4
10864	102018	105.821960855098	1
10864	102033	105.828100833806	1
10864	102045	105.833051096843	1
10864	102947	106.536135938427	8
10864	103658	107.236135938427	7
10864	104337	107.838635982592	5
10864	104541	108.050249235753	1
10864	104864	108.338102895706	12
10864	105237	108.638202905706	3
10864	105540	108.938202905706	2
10864	106404	109.741794814679	10
10864	106409	109.742961294995	10
10864	106591	109.947270997161	1
10864	106601	109.953046432196	1
10864	106967	110.292973746421	2
10864	107046	110.362563374934	4
10864	107632	110.870709114737	5
10864	108942	111.87625865569	7
10864	109204	112.07625865569	1
10864	109850	112.481765440773	4
10864	110741	113.281765440773	7
10864	111401	113.894732451911	5
10864	112062	114.404426938739	4
10864	112258	114.613927462227	1
10864	112366	114.715069834696	7
10864	112841	115.121455461499	4
10864	112849	115.140465677631	3
10864	113098	115.343717743699	2
10864	115151	117.091466800283	8
10864	115244	117.143717743699	19
10864	115404	117.30040571292	2
10864	115985	117.801120810306	6
10864	116470	118.203230265886	4
10864	116818	118.506698915622	2
10864	117624	119.207029517084	7
10864	118468	119.907029517084	6
10864	118842	120.21146501773	2
10864	118945	120.270182052231	2
10864	119320	120.673237208204	4
10864	119670	120.973237208204	2
10864	119867	121.18202513438	1
10864	120302	121.588311455047	4
10864	120779	121.997744307955	3
10864	120999	122.208728774344	1
10864	121185	122.39321043186	1
10864	121481	122.596053270272	3
10864	121866	122.896053270272	2
10864	122511	123.405437726325	5
10864	122862	123.715299127299	2
10864	123108	123.921372046623	2
10864	124446	125.021472056623	12
10864	124798	125.321472056623	2
10864	125451	125.822442191381	5
10864	126606	126.722442191381	8
10864	127215	127.127506842231	4
10864	127349	127.246950221622	6
10864	127959	127.647050231622	4
10864	128545	128.147050231622	4
10864	128889	128.447921311374	2
10864	129352	128.853761990189	3
10864	129617	129.062013704923	1
10864	129782	129.171302642491	1
10864	130951	130.071302642491	8
10864	131240	130.280493903538	1
10864	131380	130.394424136341	0
10864	132311	131.11242002381	6
10864	132601	131.342552509881	1
10864	132953	131.620681474599	5
10864	133184	131.823427616009	2
10864	133765	132.323427616009	5
10864	134366	132.83306705351	5
10864	134740	133.137040293342	2
10864	135264	133.552219359342	3
10864	135988	134.17526479294	5
10864	136077	134.274804443283	6
10864	136185	134.383273333359	1
10864	137122	135.084135904441	8
10864	137613	135.484135904441	4
10864	137856	135.68870800463	1
10864	137928	135.774041767078	1
10864	138012	135.809520690989	1
10865	445	20.60000001	0.25
10865	870	21.10000001	0.5
10865	1027	21.205762703635	1
10865	1921	22.011712135332	0.125
10865	1929	22.013014124459	0.125
10865	2304	22.31487138389	0.75
10865	2322	22.317766890671	0.75
10865	2326	22.318366760943	0.75
10865	2678	22.620006138157	0.75
10865	2701	22.626172279602	0.75
10865	2705	22.627065640332	0.75
10865	2962	22.829142421773	0.875
10865	2969	22.831429622317	0.875
10865	2975	22.835261499607	0.875
10865	3731	23.424060794753	0
10865	3920	23.534361868354	0.125
10865	4105	23.640957633126	0
10865	4107	23.64099312635	0
10865	4940	24.34109313635	0.125
10865	5329	24.74109313635	0.625
10865	6000	25.246953347589	0.375
10865	6782	25.953320910623	0.25
10865	7367	26.471831322018	0.5
10865	7390	26.536489938879	-0.25
10865	7894	26.94178399376	0.5
10865	8521	27.44178399376	0.5
10865	8781	27.643324101563	0.875
10865	9179	27.949841875592	0.75
10865	10612	29.051365087495	-0.5
10865	11696	29.870094619126	0.625
10865	12596	30.570194629126	0.125
10865	13074	30.970194629126	0.625
10865	13946	31.700369843663	0.25
10865	14389	32.084761416858	0.25
10865	14561	32.205169511592	0.5
10865	14655	32.2898683225	0.875
10865	14851	32.453590531049	0.5
10865	17458	34.56270019236	-1.75
10865	18155	35.06270019236	0.5
10865	18376	35.263690268476	0.875
10865	18702	35.568712165711	0.75
10865	19192	35.980933614299	0.625
10865	19678	36.383483626744	0.5
10865	19923	36.583483626744	0.875
10865	20955	37.390273039675	-0.125
10865	21838	38.090273039675	0.25
10865	23211	39.156054976448	0.55555555224419
10865	23549	39.391910815191	-0.625
10865	24058	39.901905705212	0.5
10865	24322	40.104213364776	0.75
10865	25852	41.304213364776	-0.5
10865	26207	41.60647833832	0.75
10865	26483	41.811066946558	0.75
10865	27009	42.213867436105	0.5
10865	28888	43.784191869267	0
10865	29593	44.384191869267	0.375
10865	30056	44.791490718182	0.625
10865	30719	45.392364212427	0.125
10865	31266	45.892364212427	0.5
10865	31977	46.494803155296	0.375
10865	32325	46.812352131633	0.75
10865	32817	47.143222931912	0.625
10865	33233	47.443222931912	0.75
10865	33836	47.925234117984	0.25
10865	34487	48.434312863544	0.375
10865	36082	49.769462402944	-0.125
10865	36428	50.069462402944	0.75
10865	36930	50.469562412944	0.5
10865	37438	50.869562412944	0.625
10865	37590	50.982639801211	1
10865	37982	51.295686243776	0.75
10865	38101	51.400073137741	0.25
10865	38371	51.600757297597	0.75
10865	38706	51.900757297597	0.75
10865	38931	52.100857307597	0.75
10865	39163	52.304665207863	0.875
10865	39623	52.711899169669	0.625
10865	40058	53.115775548924	0.625
10865	40610	53.61968065979	0.375
10865	40932	53.921008205134	0.75
10865	41002	53.997091116096	0.125
10865	41032	54.005298216115	1
10865	41881	54.705298216115	0.25
10865	42158	54.911707519013	0.25
10865	42494	55.209934397351	0.25
10865	42497	55.210456353507	0.25
10865	42605	55.312936258823	0.625
10865	42956	55.612847972637	0.625
10865	42976	55.618282364489	0.625
10865	43306	55.921114406847	0.625
10865	44127	56.63277033224	0.875
10865	44225	56.721114406847	0.125
10865	44455	56.929180135611	0.875
10865	44486	56.97179450143	0.875
10865	46344	58.435589293287	-0.25
10865	46755	58.742791437091	0.75
10865	47017	58.949392984105	0.875
10865	47962	59.808163380411	0.375
10865	48047	59.852604833217	-0.125
10865	48349	60.114342572246	0.75
10865	48662	60.355519713475	0.375
10865	48942	60.558623537702	0.875
10865	49353	60.864011089802	0.625
10865	49937	61.364011089802	0.5
10865	50266	61.67196197391	0.625
10865	50621	61.981042759275	0.75
10865	50717	62.068995575474	0.625
10865	51051	62.376792087973	0.625
10865	51300	62.576792087973	0.875
10865	51610	62.811320235592	0.875
10865	51780	63.011394610034	0.875
10865	52348	63.512709020526	0.25
10865	53296	64.312709020526	0
10865	53548	64.515820930065	0.875
10865	54180	65.017759562505	0.375
10865	54578	65.389269578286	0.375
10865	54861	65.594348599441	0.875
10865	54874	65.611111282075	0.375
10865	54900	65.630962536365	0.25
10865	55255	65.93765120879	0.625
10865	55617	66.23765120879	0.75
10865	56355	66.938615152153	0.125
10865	57624	67.942444306676	-0.375
10865	57931	68.144724685068	0.875
10865	58450	68.558872581589	0.625
10865	59408	69.161072860338	0.25
10865	59665	69.362658608324	0.875
10865	59786	69.44781583312	0.125
10865	60024	69.669127478853	0.875
10865	60158	69.771979066823	0.625
10865	60178	69.776224128692	1
10865	60926	70.476324138692	0.125
10865	61163	70.676324138692	0.875
10865	61380	70.880364878947	0.875
10865	61845	71.281253645127	0.625
10865	62097	71.495948381369	0.875
10865	63119	72.396230731586	-0.5
10865	64167	73.196230731586	-0.125
10865	64696	73.701196100744	0.5
10865	64857	73.826864023367	0.875
10865	64958	73.911192070236	0.875
10865	65178	74.136820748338	0.75
10865	65253	74.218071697065	0.75
10865	65729	74.626818947355	0.375
10865	66161	75.026818947355	0.625
10865	66579	75.434829255024	0.625
10865	66948	75.734929265024	0.625
10865	67434	76.234929265024	0.5
10865	67764	76.540274692671	0.75
10865	69034	77.553511984025	-0.25
10865	69386	77.859060478476	0.75
10865	69929	78.367775950911	0.5
10865	70080	78.524522754948	0.5
10865	70575	79.034045438819	0.125
10865	70969	79.434045438819	0.625
10865	71867	80.241705643845	0.125
10865	72280	80.54398325384	0.375
10865	72287	80.550698662629	0.75
10865	72533	80.783397819336	0.5
10865	72586	80.853541790986	0.75
10865	72600	80.856688813539	0.75
10865	72866	81.059030301851	0.75
10865	73535	81.659030301851	0.375
10865	74046	82.066616423188	0.375
10865	74462	82.408251635507	0
10865	74481	82.417342065935	0.875
10865	74640	82.574642424164	0.375
10865	74780	82.674944963303	0.875
10865	75456	83.274944963303	0.375
10865	76266	84.036526809047	0.75
10865	76523	84.240794410015	0.875
10865	76576	84.284513807982	-0.125
10865	76617	84.336618972706	0.875
10865	76715	84.440880091726	0.875
10865	77081	84.786319918109	0.5
10865	77315	84.995750378109	0.75
10865	77525	85.195750378109	0.875
10865	77906	85.503790133965	0.625
10865	78088	85.704679796543	0.875
10865	78830	86.412632823333	0.125
10865	79507	87.027759743307	-0.125
10865	79612	87.115690152866	0.125
10865	80007	87.436643188586	0.625
10865	80115	87.521750021038	0.625
10865	80790	88.021850031038	0.25
10865	81532	88.621850031038	0.375
10865	82374	89.296180566422	0.75
10865	82800	89.696180566422	0.625
10865	83242	90.002032974674	0.75
10865	83620	90.297381975189	0.375
10865	84314	90.883566826188	0
10865	85073	91.488654177705	0.25
10865	85323	91.688654177705	0.875
10865	85986	92.191666177463	0.5
10865	86166	92.299249579271	0.875
10865	87215	93.299249579271	-0.125
10865	88007	94.002909530592	0.25
10865	88307	94.207406365259	0.25
10865	88312	94.207564511168	0.875
10865	89157	94.807664521168	0.125
10865	89885	95.307664521168	0.5
10865	90486	95.814209222324	0.5
10865	90508	95.825409309164	0.5
10865	90926	96.232090036486	0.5
10865	90928	96.232162247	0.5
10865	91412	96.632262257	0.5
10865	91700	96.932262257	0.75
10865	92067	97.234022016103	0.625
10865	92119	97.3147933497	0.75
10865	92770	97.818126277418	0.375
10865	93813	98.718126277418	0
10865	93961	98.8149933597	0.875
10865	95370	99.920976342863	-0.5
10865	96022	100.520976342863	0.375
10865	96484	100.921425944773	0.625
10865	96709	101.082732523582	0.75
10865	97154	101.491631211077	0.5
10865	97499	101.791631211077	0.75
10865	97895	102.107531576115	0.75
10865	99181	103.307631586115	-0.5
10865	99813	103.907631586115	0.375
10865	100876	104.913884733873	-0.25
10865	101065	105.108922007152	0.625
10865	101375	105.322732739341	0.625
10865	101754	105.61788209555	0.25
10865	101770	105.622038881068	0.5
10865	102018	105.821960855098	0.875
10865	102033	105.828100833806	0.875
10865	102045	105.833051096843	0.875
10865	102947	106.536135938427	0
10865	103658	107.236135938427	0.125
10865	104337	107.838635982592	0.375
10865	104541	108.050249235753	0.875
10865	104864	108.338102895706	-0.5
10865	105237	108.638202905706	0.625
10865	105540	108.938202905706	0.75
10865	106404	109.741794814679	-0.25
10865	106409	109.742961294995	-0.25
10865	106591	109.947270997161	0.875
10865	106601	109.953046432196	0.875
10865	106967	110.292973746421	0.75
10865	107046	110.362563374934	0.5
10865	107632	110.870709114737	0.375
10865	108942	111.87625865569	0.125
10865	109204	112.07625865569	0.875
10865	109850	112.481765440773	0.5
10865	110741	113.281765440773	0.125
10865	111401	113.894732451911	0.375
10865	112062	114.404426938739	0.5
10865	112258	114.613927462227	0.875
10865	112366	114.715069834696	0.125
10865	112841	115.121455461499	0.5
10865	112849	115.140465677631	0.625
10865	113098	115.343717743699	0.75
10865	115151	117.091466800283	0
10865	115244	117.143717743699	-1.375
10865	115404	117.30040571292	0.75
10865	115985	117.801120810306	0.25
10865	116470	118.203230265886	0.5
10865	116818	118.506698915622	0.75
10865	117624	119.207029517084	0.125
10865	118468	119.907029517084	0.25
10865	118842	120.21146501773	0.75
10865	118945	120.270182052231	0.75
10865	119320	120.673237208204	0.5
10865	119670	120.973237208204	0.75
10865	119867	121.18202513438	0.875
10865	120302	121.588311455047	0.5
10865	120779	121.997744307955	0.625
10865	120999	122.208728774344	0.875
10865	121185	122.39321043186	0.875
10865	121481	122.596053270272	0.625
10865	121866	122.896053270272	0.75
10865	122511	123.405437726325	0.375
10865	122862	123.715299127299	0.75
10865	123108	123.921372046623	0.75
10865	124446	125.021472056623	-0.5
10865	124798	125.321472056623	0.75
10865	125451	125.822442191381	0.375
10865	126606	126.722442191381	0
10865	127215	127.127506842231	0.5
10865	127349	127.246950221622	0.25
10865	127959	127.647050231622	0.5
10865	128545	128.147050231622	0.5
10865	128889	128.447921311374	0.75
10865	129352	128.853761990189	0.625
10865	129617	129.062013704923	0.875
10865	129782	129.171302642491	0.875
10865	130951	130.071302642491	0
10865	131240	130.280493903538	0.875
10865	131380	130.394424136341	1
10865	132311	131.11242002381	0.25
10865	132601	131.342552509881	0.875
10865	132953	131.620681474599	0.375
10865	133184	131.823427616009	0.75
10865	133765	132.323427616009	0.375
10865	134366	132.83306705351	0.375
10865	134740	133.137040293342	0.75
10865	135264	133.552219359342	0.625
10865	135988	134.17526479294	0.375
10865	136077	134.274804443283	0.25
10865	136185	134.383273333359	0.875
10865	137122	135.084135904441	0
10865	137613	135.484135904441	0.5
10865	137856	135.68870800463	0.875
10865	137928	135.774041767078	0.875
10865	138012	135.809520690989	0.875
10866	445	20.60000001	0.6
10866	870	21.10000001	0.5
10866	1027	21.205762703635	0.1
10866	1921	22.011712135332	0.8
10866	1929	22.013014124459	0.8
10866	2304	22.31487138389	0.3
10866	2322	22.317766890671	0.3
10866	2326	22.318366760943	0.3
10866	2678	22.620006138157	0.3
10866	2701	22.626172279602	0.3
10866	2705	22.627065640332	0.3
10866	2962	22.829142421773	0.2
10866	2969	22.831429622317	0.2
10866	2975	22.835261499607	0.2
10866	3731	23.424060794753	0.8
10866	3920	23.534361868354	0.7
10866	4105	23.640957633126	0.8
10866	4107	23.64099312635	0.8
10866	4940	24.34109313635	0.7
10866	5329	24.74109313635	0.4
10866	6000	25.246953347589	0.5
10866	6782	25.953320910623	0.7
10866	7367	26.471831322018	0.5
10866	7390	26.536489938879	1.1
10866	7894	26.94178399376	0.4
10866	8521	27.44178399376	0.5
10866	8781	27.643324101563	0.2
10866	9179	27.949841875592	0.3
10866	10612	29.051365087495	1.1
10866	11696	29.870094619126	0.3
10866	12596	30.570194629126	0.7
10866	13074	30.970194629126	0.4
10866	13946	31.700369843663	0.7
10866	14389	32.084761416858	0.7
10866	14561	32.205169511592	0.5
10866	14655	32.2898683225	0.2
10866	14851	32.453590531049	0.5
10866	17458	34.56270019236	2.1
10866	18155	35.06270019236	0.5
10866	18376	35.263690268476	0.2
10866	18702	35.568712165711	0.3
10866	19192	35.980933614299	0.4
10866	19678	36.383483626744	0.4
10866	19923	36.583483626744	0.2
10866	20955	37.390273039675	0.8
10866	21838	38.090273039675	0.7
10866	23211	39.156054976448	0.5
10866	23549	39.391910815191	1.3
10866	24058	39.901905705212	0.5
10866	24322	40.104213364776	0.2
10866	25852	41.304213364776	1.2
10866	26207	41.60647833832	0.3
10866	26483	41.811066946558	0.2
10866	27009	42.213867436105	0.4
10866	28888	43.784191869267	0.6
10866	29593	44.384191869267	0.6
10866	30056	44.791490718182	0.4
10866	30719	45.392364212427	0.6
10866	31266	45.892364212427	0.5
10866	31977	46.494803155296	0.6
10866	32325	46.812352131633	0.3
10866	32817	47.143222931912	0.3
10866	33233	47.443222931912	0.3
10866	33836	47.925234117984	0.6
10866	34487	48.434312863544	0.5
10866	36082	49.769462402944	0.8
10866	36428	50.069462402944	0.3
10866	36930	50.469562412944	0.4
10866	37438	50.869562412944	0.4
10866	37590	50.982639801211	0.1
10866	37982	51.295686243776	0.3
10866	38101	51.400073137741	0.6
10866	38371	51.600757297597	0.2
10866	38706	51.900757297597	0.3
10866	38931	52.100857307597	0.2
10866	39163	52.304665207863	0.2
10866	39623	52.711899169669	0.4
10866	40058	53.115775548924	0.4
10866	40610	53.61968065979	0.5
10866	40932	53.921008205134	0.3
10866	41002	53.997091116096	0.8
10866	41032	54.005298216115	0
10866	41881	54.705298216115	0.7
10866	42158	54.911707519013	0.5
10866	42494	55.209934397351	0.5
10866	42497	55.210456353507	0.5
10866	42605	55.312936258823	0.4
10866	42956	55.612847972637	0.4
10866	42976	55.618282364489	0.4
10866	43306	55.921114406847	0.3
10866	44127	56.63277033224	0.2
10866	44225	56.721114406847	0.8
10866	44455	56.929180135611	0.2
10866	44486	56.97179450143	0.2
10866	46344	58.435589293287	1
10866	46755	58.742791437091	0.3
10866	47017	58.949392984105	0.2
10866	47962	59.808163380411	0.5
10866	48047	59.852604833217	0.9
10866	48349	60.114342572246	0.3
10866	48662	60.355519713475	0.5
10866	48942	60.558623537702	0.2
10866	49353	60.864011089802	0.3
10866	49937	61.364011089802	0.5
10866	50266	61.67196197391	0.3
10866	50621	61.981042759275	0.3
10866	50717	62.068995575474	0.3
10866	51051	62.376792087973	0.3
10866	51300	62.576792087973	0.2
10866	51610	62.811320235592	0.2
10866	51780	63.011394610034	0.2
10866	52348	63.512709020526	0.5
10866	53296	64.312709020526	0.8
10866	53548	64.515820930065	0.2
10866	54180	65.017759562505	0.5
10866	54578	65.389269578286	0.6
10866	54861	65.594348599441	0.2
10866	54874	65.611111282075	0.6
10866	54900	65.630962536365	0.6
10866	55255	65.93765120879	0.3
10866	55617	66.23765120879	0.3