version 2
run Stability-43-20130526-18:49:57-1898
attr configname Stability
attr datetime 20130526-18:49:57
attr experiment Stability
attr inifile omnetpp.ini
attr iterationvars $0=1e2
attr iterationvars2 "$0=1e2, $repetition=3"
attr measurement $0=1e2
attr network Network
attr processid 1898
attr repetition 3
attr replication #3
attr resultdir results
attr runnumber 43
attr seedset 43

vector 4267  Network.churner  inGoingSizeSig:vector  ETV
vector 4171  Network.dyn_peer[0]  lookupHopsSig:vector  ETV
vector 4172  Network.dyn_peer[0]  lookupStabilitySig:vector  ETV
vector 4173  Network.dyn_peer[0]  lookupTimeSig:vector  ETV
vector 4174  Network.dyn_peer[1]  lookupHopsSig:vector  ETV
vector 4175  Network.dyn_peer[1]  lookupStabilitySig:vector  ETV
vector 4176  Network.dyn_peer[1]  lookupTimeSig:vector  ETV
vector 4177  Network.dyn_peer[2]  lookupHopsSig:vector  ETV
vector 4178  Network.dyn_peer[2]  lookupStabilitySig:vector  ETV
vector 4179  Network.dyn_peer[2]  lookupTimeSig:vector  ETV
vector 4180  Network.dyn_peer[3]  lookupHopsSig:vector  ETV
vector 4181  Network.dyn_peer[3]  lookupStabilitySig:vector  ETV
vector 4182  Network.dyn_peer[3]  lookupTimeSig:vector  ETV
vector 4183  Network.dyn_peer[4]  lookupHopsSig:vector  ETV
vector 4184  Network.dyn_peer[4]  lookupStabilitySig:vector  ETV
vector 4185  Network.dyn_peer[4]  lookupTimeSig:vector  ETV
vector 4186  Network.dyn_peer[5]  lookupHopsSig:vector  ETV
vector 4187  Network.dyn_peer[5]  lookupStabilitySig:vector  ETV
vector 4188  Network.dyn_peer[5]  lookupTimeSig:vector  ETV
vector 4189  Network.dyn_peer[6]  lookupHopsSig:vector  ETV
vector 4190  Network.dyn_peer[6]  lookupStabilitySig:vector  ETV
vector 4191  Network.dyn_peer[6]  lookupTimeSig:vector  ETV
vector 4192  Network.dyn_peer[7]  lookupHopsSig:vector  ETV
vector 4193  Network.dyn_peer[7]  lookupStabilitySig:vector  ETV
vector 4194  Network.dyn_peer[7]  lookupTimeSig:vector  ETV
vector 4195  Network.dyn_peer[8]  lookupHopsSig:vector  ETV
vector 4196  Network.dyn_peer[8]  lookupStabilitySig:vector  ETV
vector 4197  Network.dyn_peer[8]  lookupTimeSig:vector  ETV
vector 4198  Network.dyn_peer[9]  lookupHopsSig:vector  ETV
vector 4199  Network.dyn_peer[9]  lookupStabilitySig:vector  ETV
vector 4200  Network.dyn_peer[9]  lookupTimeSig:vector  ETV
vector 4201  Network.dyn_peer[10]  lookupHopsSig:vector  ETV
vector 4202  Network.dyn_peer[10]  lookupStabilitySig:vector  ETV
vector 4203  Network.dyn_peer[10]  lookupTimeSig:vector  ETV
vector 4204  Network.dyn_peer[11]  lookupHopsSig:vector  ETV
vector 4205  Network.dyn_peer[11]  lookupStabilitySig:vector  ETV
vector 4206  Network.dyn_peer[11]  lookupTimeSig:vector  ETV
vector 4210  Network.dyn_peer[13]  lookupHopsSig:vector  ETV
vector 4211  Network.dyn_peer[13]  lookupStabilitySig:vector  ETV
vector 4212  Network.dyn_peer[13]  lookupTimeSig:vector  ETV
vector 4207  Network.dyn_peer[12]  lookupHopsSig:vector  ETV
vector 4208  Network.dyn_peer[12]  lookupStabilitySig:vector  ETV
vector 4209  Network.dyn_peer[12]  lookupTimeSig:vector  ETV
vector 4213  Network.dyn_peer[14]  lookupHopsSig:vector  ETV
vector 4214  Network.dyn_peer[14]  lookupStabilitySig:vector  ETV
vector 4215  Network.dyn_peer[14]  lookupTimeSig:vector  ETV
vector 4219  Network.dyn_peer[16]  lookupHopsSig:vector  ETV
vector 4220  Network.dyn_peer[16]  lookupStabilitySig:vector  ETV
vector 4221  Network.dyn_peer[16]  lookupTimeSig:vector  ETV
vector 4225  Network.dyn_peer[18]  lookupHopsSig:vector  ETV
vector 4226  Network.dyn_peer[18]  lookupStabilitySig:vector  ETV
vector 4227  Network.dyn_peer[18]  lookupTimeSig:vector  ETV
vector 4216  Network.dyn_peer[15]  lookupHopsSig:vector  ETV
vector 4217  Network.dyn_peer[15]  lookupStabilitySig:vector  ETV
vector 4218  Network.dyn_peer[15]  lookupTimeSig:vector  ETV
vector 4222  Network.dyn_peer[17]  lookupHopsSig:vector  ETV
vector 4223  Network.dyn_peer[17]  lookupStabilitySig:vector  ETV
vector 4224  Network.dyn_peer[17]  lookupTimeSig:vector  ETV
vector 4228  Network.dyn_peer[19]  lookupHopsSig:vector  ETV
vector 4229  Network.dyn_peer[19]  lookupStabilitySig:vector  ETV
vector 4230  Network.dyn_peer[19]  lookupTimeSig:vector  ETV
vector 4234  Network.dyn_peer[21]  lookupHopsSig:vector  ETV
vector 4235  Network.dyn_peer[21]  lookupStabilitySig:vector  ETV
vector 4236  Network.dyn_peer[21]  lookupTimeSig:vector  ETV
vector 4243  Network.dyn_peer[24]  lookupHopsSig:vector  ETV
vector 4244  Network.dyn_peer[24]  lookupStabilitySig:vector  ETV
vector 4245  Network.dyn_peer[24]  lookupTimeSig:vector  ETV
vector 4237  Network.dyn_peer[22]  lookupHopsSig:vector  ETV
vector 4238  Network.dyn_peer[22]  lookupStabilitySig:vector  ETV
vector 4239  Network.dyn_peer[22]  lookupTimeSig:vector  ETV
vector 4231  Network.dyn_peer[20]  lookupHopsSig:vector  ETV
vector 4232  Network.dyn_peer[20]  lookupStabilitySig:vector  ETV
vector 4233  Network.dyn_peer[20]  lookupTimeSig:vector  ETV
vector 4246  Network.dyn_peer[25]  lookupHopsSig:vector  ETV
vector 4247  Network.dyn_peer[25]  lookupStabilitySig:vector  ETV
vector 4248  Network.dyn_peer[25]  lookupTimeSig:vector  ETV
vector 4249  Network.dyn_peer[26]  lookupHopsSig:vector  ETV
vector 4250  Network.dyn_peer[26]  lookupStabilitySig:vector  ETV
vector 4251  Network.dyn_peer[26]  lookupTimeSig:vector  ETV
vector 4240  Network.dyn_peer[23]  lookupHopsSig:vector  ETV
vector 4241  Network.dyn_peer[23]  lookupStabilitySig:vector  ETV
vector 4242  Network.dyn_peer[23]  lookupTimeSig:vector  ETV
vector 4255  Network.dyn_peer[28]  lookupHopsSig:vector  ETV
vector 4256  Network.dyn_peer[28]  lookupStabilitySig:vector  ETV
vector 4257  Network.dyn_peer[28]  lookupTimeSig:vector  ETV
vector 4252  Network.dyn_peer[27]  lookupHopsSig:vector  ETV
vector 4253  Network.dyn_peer[27]  lookupStabilitySig:vector  ETV
vector 4254  Network.dyn_peer[27]  lookupTimeSig:vector  ETV
vector 4261  Network.dyn_peer[30]  lookupHopsSig:vector  ETV
vector 4262  Network.dyn_peer[30]  lookupStabilitySig:vector  ETV
vector 4263  Network.dyn_peer[30]  lookupTimeSig:vector  ETV
vector 4258  Network.dyn_peer[29]  lookupHopsSig:vector  ETV
vector 4259  Network.dyn_peer[29]  lookupStabilitySig:vector  ETV
vector 4260  Network.dyn_peer[29]  lookupTimeSig:vector  ETV
vector 4264  Network.dyn_peer[31]  lookupHopsSig:vector  ETV
vector 4265  Network.dyn_peer[31]  lookupStabilitySig:vector  ETV
vector 4266  Network.dyn_peer[31]  lookupTimeSig:vector  ETV
4171	34	20.2	1
4171	61	20.5	2
4171	129	20.905432025156	3
4171	1140	23.6	3
4171	1228	23.8	1
4171	1376	24.107350921728	1
4171	1493	24.309769943828	1
4171	2581	26.5	3
4171	2839	27.2	6
4171	3012	27.512769426319	2
4171	3220	27.918024359182	3
4171	4103	29.8	1
4171	4170	30	1
4171	4378	30.41125511388	3
4171	4506	30.612189009284	1
4171	4600	30.801620056116	1
4171	5571	32.8	1
4171	5738	33.2	3
4171	5886	33.503312260406	2
4171	5912	33.523515666186	2
4171	6029	33.731161958587	1
4171	6064	33.812834191815	2
4171	6160	34.005692241724	3
4171	7330	36.5	5
4171	7434	36.7	1
4171	7569	37.008828478161	3
4171	7784	37.511920758836	4
4171	7916	37.820525379882	2
4171	8865	39.7	1
4171	9019	40	2
4171	10063	42.2	2
4171	10145	42.4	1
4171	10280	42.705219797943	2
4171	10812	43.711775489283	9
4171	11818	45.5	1
4171	12100	46.1	6
4171	12321	46.704077069882	5
4171	13340	48.9	4
4171	13526	49.2	2
4171	13660	49.4001	1
4171	13668	49.408874201753	1
4171	13832	49.710069685696	2
4171	14834	52	2
4171	14926	52.2	1
4171	15044	52.504872287479	2
4171	15181	52.807269097002	2
4171	15301	53.011041073434	1
4171	15306	53.012227936845	1
4171	16486	55.4	9
4171	16673	55.8	4
4171	16805	56.1058299601	2
4171	16902	56.406944354562	2
4171	17766	58.3	1
4171	17886	58.6	2
4171	17974	58.803354722021	1
4171	18816	60.7	1
4171	18947	61	2
4171	19142	61.408969532004	3
4171	20603	64.3	11
4171	20857	64.7	4
4171	20993	64.903426046294	1
4171	21966	66.9	1
4171	22109	67.207832906283	2
4171	22192	67.353371350308	1
4171	23461	69.9	11
4171	23539	70.1	1
4171	23650	70.402561699484	2
4171	23743	70.6001	2
4171	23747	70.606076008641	1
4171	23859	70.807795406875	1
4171	23863	70.81311235019	1
4171	23872	70.816636956282	1
4171	24059	71.215460166204	3
4171	24980	73.1	1
4171	25131	73.5	3
4171	25242	73.8085337448	2
4171	25333	74.005018264525	2
4171	25395	74.116265604504	2
4171	25437	74.207674774426	2
4171	25534	74.411788007304	3
4171	25608	74.522095957764	3
4171	26660	76.4	1
4171	26762	76.7	2
4171	27911	79.1	5
4171	28039	79.5	3
4171	28294	80.107004957692	6
4171	28482	80.513885144138	3
4171	29364	82.4	1
4171	29524	82.803529406557	3
4171	29586	83.011398647571	2
4171	29588	83.013188902632	1
4171	30842	85.8	8
4171	30979	86.2	3
4171	31174	86.604711657718	3
4171	31326	86.917774054647	2
4171	31384	87.020328023869	1
4171	31490	87.3321423298	2
4171	32585	89.5	3
4171	32742	89.8	2
4171	33175	90.405585495522	6
4171	33190	90.412797247335	6
4171	33296	90.712836307252	2
4171	33301	90.715124839386	2
4171	33390	90.925865673454	1
4171	33392	90.930016114847	1
4171	34388	93.3	4
4171	34501	93.6	2
4171	34593	93.816948495604	1
4171	34855	94.320984784279	4
4171	35883	96.3	2
4171	36178	96.8	4
4171	36450	97.208228196294	4
4171	36454	97.208573250184	3
4171	36661	97.616212136841	3
4171	36663	97.617448390303	3
4171	36671	97.625501606181	3
4171	37770	99.9	3
4171	37882	100.2	2
4171	38000	100.404073033956	1
4171	39111	102.5	3
4171	39333	103	5
4171	39402	103.200867938003	1
4171	39590	103.603850481844	3
4171	39882	104.207533062427	5
4171	39887	104.214338589758	5
4171	40880	106.2	1
4171	40953	106.4	1
4171	41370	107.106149270455	6
4171	41469	107.307121518973	1
4171	41609	107.515461388851	1
4171	41736	107.711918637424	1
4171	42823	110.1	4
4171	43078	110.6	4
4171	43370	111.209529295355	3
4171	43372	111.209691953894	6
4171	43588	111.610494597236	3
4171	44528	113.5	1
4171	44757	113.9	3
4171	45910	116.4	0
4171	46274	117	5
4171	46396	117.208927221789	4
4171	47587	119.8	2
4171	47782	120.2	3
4171	47916	120.502387541106	3
4171	48103	120.908097549902	3
4171	49157	123	0
4171	49291	123.2	1
4171	49515	123.617814357052	2
4171	49596	123.811912938886	5
4171	49627	123.92153000268	2
4171	50823	126.5	5
4171	50940	126.8	2
4171	51118	127.206139557629	3
4171	52075	129.4	1
4171	52292	129.8	3
4171	53408	132.1	4
4171	53561	132.4	2
4171	53690	132.704952676945	3
4171	53707	132.714807973391	3
4171	53712	132.71669650332	2
4171	54673	134.8	1
4171	54750	135	1
4171	54884	135.300438375114	2
4171	55022	135.606311432597	4
4171	55025	135.609701208236	2
4171	56022	137.7	1
4171	56500	138.516197262962	8
4171	57572	140.8	2
4171	57708	141.1	2
4171	57816	141.307674140802	1
4171	58057	141.916379652744	5
4171	59120	143.8	3
4171	59252	144.005746497003	1
4171	59590	144.531929794117	2
4171	59634	144.616992972968	7
4171	60622	146.8	2
4171	60868	147.3	4
4171	60967	147.50922909243	1
4171	61063	147.711056904269	1
4171	61068	147.714504363929	1
4171	62051	149.7	0
4171	62275	150.1	4
4171	62352	150.208885201771	1
4171	63466	152.5	5
4171	63997	153.4	9
4171	64199	153.807631573141	3
4171	64373	154.209628654855	3
4171	64379	154.215800259687	3
4171	65265	156.1	1
4171	65393	156.4	2
4171	65516	156.61470359017	1
4171	65711	157.024909358308	3
4171	65793	157.204481479811	8
4171	65815	157.227837984868	1
4171	67018	159.8	4
4171	67136	160.1	2
4171	67220	160.306531960989	1
4171	67348	160.528310580967	1
4171	68395	162.8	2
4171	68620	163.2	4
4171	68751	163.500235646306	2
4171	68927	163.912782408556	3
4171	69008	164.100771671638	4
4171	69079	164.212552011549	2
4171	69084	164.217472837688	2
4171	70240	166.7	5
4171	70476	167.2	4
4171	70840	167.907166269398	8
4171	70859	167.916649594809	9
4171	70957	168.125140814561	1
4171	70960	168.127519148801	1
4171	72013	170.4	2
4171	72135	170.7	2
4171	72362	171.110851235722	1
4171	72368	171.115663906851	3
4171	73416	173.6	3
4171	73565	173.9	2
4171	74014	174.602404611343	8
4171	74027	174.607300274579	3
4171	75139	177	5
4171	75224	177.3	2
4171	75405	177.705900365859	4
4171	75592	178.112296451681	4
4171	75637	178.231027659191	1
4171	76863	180.9	6
4171	76996	181.2	2
4171	77070	181.404965384725	1
4171	77223	181.710021322641	2
4171	77226	181.711485366245	2
4171	77303	181.918944904537	1
4171	77305	181.919960568562	1
4171	78284	184	2
4171	78377	184.2	1
4171	78555	184.605031943793	4
4171	78571	184.61213554715	3
4171	78696	184.912863064308	5
4171	79640	187.1	2
4171	80101	188.009721826051	10
4171	80224	188.312705710853	2
4171	80233	188.318073653852	6
4171	80374	188.614570306277	2
4171	80430	188.723507639088	3
4171	81528	190.8	3
4171	81638	191.006339633378	1
4171	81730	191.213376732866	1
4171	81912	191.628367260744	3
4171	82844	193.5	1
4171	82906	193.7	1
4171	83137	194.210111425224	4
4171	83225	194.412760539012	1
4171	84293	196.7	3
4171	84486	197	3
4171	84727	197.511039706174	4
4171	84878	197.81033994704	4
4171	84882	197.812392114175	2
4171	85912	199.9	4
4171	86004	200.1	1
4171	86109	200.300363285716	1
4171	87280	202.4	5
4171	87359	202.6	1
4171	87580	203.114107148973	5
4171	88592	205.3	1
4171	88822	205.809507189304	5
4171	89005	206.233846434496	3
4171	89125	206.540944601938	2
4171	90139	208.7	2
4171	90292	209.1	3
4171	90409	209.308522411338	1
4171	90569	209.716207702963	3
4171	91655	212.2	6
4171	91843	212.6	3
4171	92016	213.005456766273	3
4171	92101	213.207238505858	1
4171	92226	213.423528761004	1
4171	93117	215.3	2
4171	93251	215.6	2
4171	93440	215.953529548595	2
4171	93617	216.304352808573	7
4171	93649	216.358196145283	3
4171	93687	216.406926386863	1
4171	93764	216.556971160419	2
4171	94927	218.9	3
4171	95111	219.208438610227	2
4171	95399	219.811401794149	6
4171	96807	222.6	12
4171	96931	222.8	1
4171	97046	223.100805675997	2
4171	97136	223.30216184548	1
4172	34	20.2	0.875
4172	61	20.5	0.75
4172	129	20.905432025156	0.625
4172	1140	23.6	0.625
4172	1228	23.8	0.875
4172	1376	24.107350921728	0.875
4172	1493	24.309769943828	0.875
4172	2581	26.5	0.625
4172	2839	27.2	0.25
4172	3012	27.512769426319	0.75
4172	3220	27.918024359182	0.625
4172	4103	29.8	0.875
4172	4170	30	0.875
4172	4378	30.41125511388	0.625
4172	4506	30.612189009284	0.875
4172	4600	30.801620056116	0.875
4172	5571	32.8	0.875
4172	5738	33.2	0.625
4172	5886	33.503312260406	0.75
4172	5912	33.523515666186	0.75
4172	6029	33.731161958587	0.875
4172	6064	33.812834191815	0.75
4172	6160	34.005692241724	0.625
4172	7330	36.5	0.375
4172	7434	36.7	0.875
4172	7569	37.008828478161	0.625
4172	7784	37.511920758836	0.5
4172	7916	37.820525379882	0.75
4172	8865	39.7	0.875
4172	9019	40	0.75
4172	10063	42.2	0.75
4172	10145	42.4	0.875
4172	10280	42.705219797943	0.75
4172	10812	43.711775489283	-0.125
4172	11818	45.5	0.875
4172	12100	46.1	0.25
4172	12321	46.704077069882	0.375
4172	13340	48.9	0.5
4172	13526	49.2	0.75
4172	13660	49.4001	0.875
4172	13668	49.408874201753	0.875
4172	13832	49.710069685696	0.75
4172	14834	52	0.75
4172	14926	52.2	0.875
4172	15044	52.504872287479	0.75
4172	15181	52.807269097002	0.75
4172	15301	53.011041073434	0.875
4172	15306	53.012227936845	0.875
4172	16486	55.4	-0.125
4172	16673	55.8	0.5
4172	16805	56.1058299601	0.75
4172	16902	56.406944354562	0.75
4172	17766	58.3	0.875
4172	17886	58.6	0.75
4172	17974	58.803354722021	0.875
4172	18816	60.7	0.875
4172	18947	61	0.75
4172	19142	61.408969532004	0.625
4172	20603	64.3	-0.375
4172	20857	64.7	0.5
4172	20993	64.903426046294	0.875
4172	21966	66.9	0.875
4172	22109	67.207832906283	0.75
4172	22192	67.353371350308	0.875
4172	23461	69.9	-0.375
4172	23539	70.1	0.875
4172	23650	70.402561699484	0.75
4172	23743	70.6001	0.75
4172	23747	70.606076008641	0.875
4172	23859	70.807795406875	0.875
4172	23863	70.81311235019	0.875
4172	23872	70.816636956282	0.875
4172	24059	71.215460166204	0.625
4172	24980	73.1	0.875
4172	25131	73.5	0.625
4172	25242	73.8085337448	0.75
4172	25333	74.005018264525	0.75
4172	25395	74.116265604504	0.75
4172	25437	74.207674774426	0.75
4172	25534	74.411788007304	0.625
4172	25608	74.522095957764	0.625
4172	26660	76.4	0.875
4172	26762	76.7	0.75
4172	27911	79.1	0.375
4172	28039	79.5	0.625
4172	28294	80.107004957692	0.25
4172	28482	80.513885144138	0.625
4172	29364	82.4	0.875
4172	29524	82.803529406557	0.625
4172	29586	83.011398647571	0.75
4172	29588	83.013188902632	0.875
4172	30842	85.8	0
4172	30979	86.2	0.625
4172	31174	86.604711657718	0.625
4172	31326	86.917774054647	0.75
4172	31384	87.020328023869	0.875
4172	31490	87.3321423298	0.75
4172	32585	89.5	0.625
4172	32742	89.8	0.75
4172	33175	90.405585495522	0.25
4172	33190	90.412797247335	0.25
4172	33296	90.712836307252	0.75
4172	33301	90.715124839386	0.75
4172	33390	90.925865673454	0.875
4172	33392	90.930016114847	0.875
4172	34388	93.3	0.5
4172	34501	93.6	0.75
4172	34593	93.816948495604	0.875
4172	34855	94.320984784279	0.5
4172	35883	96.3	0.75
4172	36178	96.8	0.5
4172	36450	97.208228196294	0.5
4172	36454	97.208573250184	0.625
4172	36661	97.616212136841	0.625
4172	36663	97.617448390303	0.625
4172	36671	97.625501606181	0.625
4172	37770	99.9	0.625
4172	37882	100.2	0.75
4172	38000	100.404073033956	0.875
4172	39111	102.5	0.625
4172	39333	103	0.375
4172	39402	103.200867938003	0.875
4172	39590	103.603850481844	0.625
4172	39882	104.207533062427	0.375
4172	39887	104.214338589758	0.375
4172	40880	106.2	0.875
4172	40953	106.4	0.875
4172	41370	107.106149270455	0.25
4172	41469	107.307121518973	0.875
4172	41609	107.515461388851	0.875
4172	41736	107.711918637424	0.875
4172	42823	110.1	0.5
4172	43078	110.6	0.5
4172	43370	111.209529295355	0.625
4172	43372	111.209691953894	0.25
4172	43588	111.610494597236	0.625
4172	44528	113.5	0.875
4172	44757	113.9	0.625
4172	45910	116.4	1
4172	46274	117	0.375
4172	46396	117.208927221789	0.5
4172	47587	119.8	0.75
4172	47782	120.2	0.625
4172	47916	120.502387541106	0.625
4172	48103	120.908097549902	0.625
4172	49157	123	1
4172	49291	123.2	0.875
4172	49515	123.617814357052	0.75
4172	49596	123.811912938886	0.375
4172	49627	123.92153000268	0.75
4172	50823	126.5	0.375
4172	50940	126.8	0.75
4172	51118	127.206139557629	0.625
4172	52075	129.4	0.875
4172	52292	129.8	0.625
4172	53408	132.1	0.5
4172	53561	132.4	0.75
4172	53690	132.704952676945	0.625
4172	53707	132.714807973391	0.625
4172	53712	132.71669650332	0.75
4172	54673	134.8	0.875
4172	54750	135	0.875
4172	54884	135.300438375114	0.75
4172	55022	135.606311432597	0.5
4172	55025	135.609701208236	0.75
4172	56022	137.7	0.875
4172	56500	138.516197262962	0
4172	57572	140.8	0.75
4172	57708	141.1	0.75
4172	57816	141.307674140802	0.875
4172	58057	141.916379652744	0.375
4172	59120	143.8	0.625
4172	59252	144.005746497003	0.875
4172	59590	144.531929794117	0.75
4172	59634	144.616992972968	0.125
4172	60622	146.8	0.75
4172	60868	147.3	0.5
4172	60967	147.50922909243	0.875
4172	61063	147.711056904269	0.875
4172	61068	147.714504363929	0.875
4172	62051	149.7	1
4172	62275	150.1	0.5
4172	62352	150.208885201771	0.875
4172	63466	152.5	0.375
4172	63997	153.4	-0.125
4172	64199	153.807631573141	0.625
4172	64373	154.209628654855	0.625
4172	64379	154.215800259687	0.625
4172	65265	156.1	0.875
4172	65393	156.4	0.75
4172	65516	156.61470359017	0.875
4172	65711	157.024909358308	0.625
4172	65793	157.204481479811	0
4172	65815	157.227837984868	0.875
4172	67018	159.8	0.5
4172	67136	160.1	0.75
4172	67220	160.306531960989	0.875
4172	67348	160.528310580967	0.875
4172	68395	162.8	0.75
4172	68620	163.2	0.5
4172	68751	163.500235646306	0.75
4172	68927	163.912782408556	0.625
4172	69008	164.100771671638	0.5
4172	69079	164.212552011549	0.75
4172	69084	164.217472837688	0.75
4172	70240	166.7	0.375
4172	70476	167.2	0.5
4172	70840	167.907166269398	0
4172	70859	167.916649594809	-0.125
4172	70957	168.125140814561	0.875
4172	70960	168.127519148801	0.875
4172	72013	170.4	0.75
4172	72135	170.7	0.75
4172	72362	171.110851235722	0.875
4172	72368	171.115663906851	0.625
4172	73416	173.6	0.625
4172	73565	173.9	0.75
4172	74014	174.602404611343	0
4172	74027	174.607300274579	0.625
4172	75139	177	0.375
4172	75224	177.3	0.75
4172	75405	177.705900365859	0.5
4172	75592	178.112296451681	0.5
4172	75637	178.231027659191	0.875
4172	76863	180.9	0.25
4172	76996	181.2	0.75
4172	77070	181.404965384725	0.875
4172	77223	181.710021322641	0.75
4172	77226	181.711485366245	0.75
4172	77303	181.918944904537	0.875
4172	77305	181.919960568562	0.875
4172	78284	184	0.75
4172	78377	184.2	0.875
4172	78555	184.605031943793	0.5
4172	78571	184.61213554715	0.625
4172	78696	184.912863064308	0.375
4172	79640	187.1	0.75
4172	80101	188.009721826051	-0.25
4172	80224	188.312705710853	0.75
4172	80233	188.318073653852	0.25
4172	80374	188.614570306277	0.75
4172	80430	188.723507639088	0.625
4172	81528	190.8	0.625
4172	81638	191.006339633378	0.875
4172	81730	191.213376732866	0.875
4172	81912	191.628367260744	0.625
4172	82844	193.5	0.875
4172	82906	193.7	0.875
4172	83137	194.210111425224	0.5
4172	83225	194.412760539012	0.875
4172	84293	196.7	0.625
4172	84486	197	0.625
4172	84727	197.511039706174	0.5
4172	84878	197.81033994704	0.5
4172	84882	197.812392114175	0.75
4172	85912	199.9	0.5
4172	86004	200.1	0.875
4172	86109	200.300363285716	0.875
4172	87280	202.4	0.375
4172	87359	202.6	0.875
4172	87580	203.114107148973	0.375
4172	88592	205.3	0.875
4172	88822	205.809507189304	0.375
4172	89005	206.233846434496	0.625
4172	89125	206.540944601938	0.75
4172	90139	208.7	0.75
4172	90292	209.1	0.625
4172	90409	209.308522411338	0.875
4172	90569	209.716207702963	0.625
4172	91655	212.2	0.25
4172	91843	212.6	0.625
4172	92016	213.005456766273	0.625
4172	92101	213.207238505858	0.875
4172	92226	213.423528761004	0.875
4172	93117	215.3	0.75
4172	93251	215.6	0.75
4172	93440	215.953529548595	0.75
4172	93617	216.304352808573	0.125
4172	93649	216.358196145283	0.625
4172	93687	216.406926386863	0.875
4172	93764	216.556971160419	0.75
4172	94927	218.9	0.625
4172	95111	219.208438610227	0.75
4172	95399	219.811401794149	0.25
4172	96807	222.6	-0.5
4172	96931	222.8	0.875
4172	97046	223.100805675997	0.75
4172	97136	223.30216184548	0.875
4173	34	20.2	0.1
4173	61	20.5	0.3
4173	129	20.905432025156	0.4
4173	1140	23.6	0.3
4173	1228	23.8	0.2
4173	1376	24.107350921728	0.2
4173	1493	24.309769943828	0.2
4173	2581	26.5	0.2
4173	2839	27.2	0.7
4173	3012	27.512769426319	0.3
4173	3220	27.918024359182	0.4
4173	4103	29.8	0.1
4173	4170	30	0.2
4173	4378	30.41125511388	0.4
4173	4506	30.612189009284	0.2
4173	4600	30.801620056116	0.2
4173	5571	32.8	0.1
4173	5738	33.2	0.4
4173	5886	33.503312260406	0.3
4173	5912	33.523515666186	0.3
4173	6029	33.731161958587	0.2
4173	6064	33.812834191815	0.3
4173	6160	34.005692241724	0.3
4173	7330	36.5	0.4
4173	7434	36.7	0.2
4173	7569	37.008828478161	0.3
4173	7784	37.511920758836	0.5
4173	7916	37.820525379882	0.3
4173	8865	39.7	0.1
4173	9019	40	0.3
4173	10063	42.2	0.2
4173	10145	42.4	0.2
4173	10280	42.705219797943	0.3
4173	10812	43.711775489283	1
4173	11818	45.5	0.1
4173	12100	46.1	0.6
4173	12321	46.704077069882	0.6
4173	13340	48.9	0.4
4173	13526	49.2	0.3
4173	13660	49.4001	0.2
4173	13668	49.408874201753	0.2
4173	13832	49.710069685696	0.3
4173	14834	52	0.2
4173	14926	52.2	0.2
4173	15044	52.504872287479	0.3
4173	15181	52.807269097002	0.3
4173	15301	53.011041073434	0.2
4173	15306	53.012227936845	0.2
4173	16486	55.4	0.6
4173	16673	55.8	0.4
4173	16805	56.1058299601	0.3
4173	16902	56.406944354562	0.3
4173	17766	58.3	0.1
4173	17886	58.6	0.3
4173	17974	58.803354722021	0.2
4173	18816	60.7	0.1
4173	18947	61	0.3
4173	19142	61.408969532004	0.4
4173	20603	64.3	1
4173	20857	64.7	0.4
4173	20993	64.903426046294	0.2
4173	21966	66.9	0.1
4173	22109	67.207832906283	0.3
4173	22192	67.353371350308	0.2
4173	23461	69.9	0.8
4173	23539	70.1	0.2
4173	23650	70.402561699484	0.3
4173	23743	70.6001	0.3
4173	23747	70.606076008641	0.2
4173	23859	70.807795406875	0.2
4173	23863	70.81311235019	0.2
4173	23872	70.816636956282	0.2
4173	24059	71.215460166204	0.4
4173	24980	73.1	0.1
4173	25131	73.5	0.4
4173	25242	73.8085337448	0.3
4173	25333	74.005018264525	0.3
4173	25395	74.116265604504	0.3
4173	25437	74.207674774426	0.2
4173	25534	74.411788007304	0.4
4173	25608	74.522095957764	0.4
4173	26660	76.4	0.1
4173	26762	76.7	0.3
4173	27911	79.1	0.5
4173	28039	79.5	0.4
4173	28294	80.107004957692	0.6
4173	28482	80.513885144138	0.4
4173	29364	82.4	0.1
4173	29524	82.803529406557	0.4
4173	29586	83.011398647571	0.3
4173	29588	83.013188902632	0.2
4173	30842	85.8	0.7
4173	30979	86.2	0.4
4173	31174	86.604711657718	0.4
4173	31326	86.917774054647	0.3
4173	31384	87.020328023869	0.2
4173	31490	87.3321423298	0.3
4173	32585	89.5	0.3
4173	32742	89.8	0.3
4173	33175	90.405585495522	0.6
4173	33190	90.412797247335	0.6
4173	33296	90.712836307252	0.3
4173	33301	90.715124839386	0.3
4173	33390	90.925865673454	0.2
4173	33392	90.930016114847	0.2
4173	34388	93.3	0.4
4173	34501	93.6	0.3
4173	34593	93.816948495604	0.2
4173	34855	94.320984784279	0.5
4173	35883	96.3	0.2
4173	36178	96.8	0.5
4173	36450	97.208228196294	0.4
4173	36454	97.208573250184	0.4
4173	36661	97.616212136841	0.4
4173	36663	97.617448390303	0.4
4173	36671	97.625501606181	0.4
4173	37770	99.9	0.3
4173	37882	100.2	0.3
4173	38000	100.404073033956	0.2
4173	39111	102.5	0.3
4173	39333	103	0.5
4173	39402	103.200867938003	0.2
4173	39590	103.603850481844	0.4
4173	39882	104.207533062427	0.6
4173	39887	104.214338589758	0.6
4173	40880	106.2	0.1
4173	40953	106.4	0.2
4173	41370	107.106149270455	0.7
4173	41469	107.307121518973	0.2
4173	41609	107.515461388851	0.2
4173	41736	107.711918637424	0.2
4173	42823	110.1	0.4
4173	43078	110.6	0.5
4173	43370	111.209529295355	0.4
4173	43372	111.209691953894	0.6
4173	43588	111.610494597236	0.4
4173	44528	113.5	0.1
4173	44757	113.9	0.4
4173	45910	116.4	0
4173	46274	117	0.6
4173	46396	117.208927221789	0.5
4173	47587	119.8	0.2
4173	47782	120.2	0.4
4173	47916	120.502387541106	0.3
4173	48103	120.908097549902	0.4
4173	49157	123	0
4173	49291	123.2	0.2
4173	49515	123.617814357052	0.3
4173	49596	123.811912938886	0.6
4173	49627	123.92153000268	0.3
4173	50823	126.5	0.4
4173	50940	126.8	0.3
4173	51118	127.206139557629	0.4
4173	52075	129.4	0.1
4173	52292	129.8	0.4
4173	53408	132.1	0.3
4173	53561	132.4	0.3
4173	53690	132.704952676945	0.3
4173	53707	132.714807973391	0.4
4173	53712	132.71669650332	0.3
4173	54673	134.8	0.1
4173	54750	135	0.2
4173	54884	135.300438375114	0.3
4173	55022	135.606311432597	0.5
4173	55025	135.609701208236	0.3
4173	56022	137.7	0.1
4173	56500	138.516197262962	0.8
4173	57572	140.8	0.2
4173	57708	141.1	0.3
4173	57816	141.307674140802	0.2
4173	58057	141.916379652744	0.6
4173	59120	143.8	0.3
4173	59252	144.005746497003	0.2
4173	59590	144.531929794117	0.3
4173	59634	144.616992972968	0.6
4173	60622	146.8	0.2
4173	60868	147.3	0.5
4173	60967	147.50922909243	0.2
4173	61063	147.711056904269	0.2
4173	61068	147.714504363929	0.2
4173	62051	149.7	0
4173	62275	150.1	0.4
4173	62352	150.208885201771	0.2
4173	63466	152.5	0.5
4173	63997	153.4	0.9
4173	64199	153.807631573141	0.4
4173	64373	154.209628654855	0.4
4173	64379	154.215800259687	0.4
4173	65265	156.1	0.1
4173	65393	156.4	0.3
4173	65516	156.61470359017	0.2
4173	65711	157.024909358308	0.4
4173	65793	157.204481479811	0.8
4173	65815	157.227837984868	0.2
4173	67018	159.8	0.3
4173	67136	160.1	0.3
4173	67220	160.306531960989	0.2
4173	67348	160.528310580967	0.2
4173	68395	162.8	0.2
4173	68620	163.2	0.4
4173	68751	163.500235646306	0.3
4173	68927	163.912782408556	0.4
4173	69008	164.100771671638	0.4
4173	69079	164.212552011549	0.3
4173	69084	164.217472837688	0.3
4173	70240	166.7	0.5
4173	70476	167.2	0.5
4173	70840	167.907166269398	0.7
4173	70859	167.916649594809	0.7
4173	70957	168.125140814561	0.2
4173	70960	168.127519148801	0.2
4173	72013	170.4	0.2
4173	72135	170.7	0.3
4173	72362	171.110851235722	0.2
4173	72368	171.115663906851	0.4
4173	73416	173.6	0.3
4173	73565	173.9	0.3
4173	74014	174.602404611343	0.7
4173	74027	174.607300274579	0.4
4173	75139	177	0.4
4173	75224	177.3	0.3
4173	75405	177.705900365859	0.4
4173	75592	178.112296451681	0.4
4173	75637	178.231027659191	0.2
4173	76863	180.9	0.5
4173	76996	181.2	0.3
4173	77070	181.404965384725	0.2
4173	77223	181.710021322641	0.3
4173	77226	181.711485366245	0.3
4173	77303	181.918944904537	0.2
4173	77305	181.919960568562	0.2
4173	78284	184	0.2
4173	78377	184.2	0.2
4173	78555	184.605031943793	0.4
4173	78571	184.61213554715	0.3
4173	78696	184.912863064308	0.6
4173	79640	187.1	0.2
4173	80101	188.009721826051	0.9
4173	80224	188.312705710853	0.3
4173	80233	188.318073653852	0.7
4173	80374	188.614570306277	0.3
4173	80430	188.723507639088	0.4
4173	81528	190.8	0.3
4173	81638	191.006339633378	0.2
4173	81730	191.213376732866	0.2
4173	81912	191.628367260744	0.4
4173	82844	193.5	0.1
4173	82906	193.7	0.2
4173	83137	194.210111425224	0.5
4173	83225	194.412760539012	0.2
4173	84293	196.7	0.3
4173	84486	197	0.3
4173	84727	197.511039706174	0.5
4173	84878	197.81033994704	0.5
4173	84882	197.812392114175	0.3
4173	85912	199.9	0.4
4173	86004	200.1	0.2
4173	86109	200.300363285716	0.2
4173	87280	202.4	0.4
4173	87359	202.6	0.2
4173	87580	203.114107148973	0.5
4173	88592	205.3	0.1
4173	88822	205.809507189304	0.5
4173	89005	206.233846434496	0.4
4173	89125	206.540944601938	0.3
4173	90139	208.7	0.2
4173	90292	209.1	0.4
4173	90409	209.308522411338	0.2
4173	90569	209.716207702963	0.4
4173	91655	212.2	0.6
4173	91843	212.6	0.4
4173	92016	213.005456766273	0.4
4173	92101	213.207238505858	0.2
4173	92226	213.423528761004	0.2
4173	93117	215.3	0.2
4173	93251	215.6	0.3
4173	93440	215.953529548595	0.3
4173	93617	216.304352808573	0.7
4173	93649	216.358196145283	0.4
4173	93687	216.406926386863	0.1
4173	93764	216.556971160419	0.3
4173	94927	218.9	0.3
4173	95111	219.208438610227	0.3
4173	95399	219.811401794149	0.6
4173	96807	222.6	1
4173	96931	222.8	0.2
4173	97046	223.100805675997	0.3
4173	97136	223.30216184548	0.2
4174	39	20.2	0
4174	66	20.507984921713	2
4174	113	20.812433135565	2
4174	195	21.122215176925	2
4174	214	21.214633555902	2
4174	1071	23.4	0
4174	1174	23.7	2
4174	1285	23.913574687747	3
4174	2244	25.9	3
4174	2364	26.107101748005	1
4174	3630	28.7	4
4174	3796	29	2
4174	3885	29.205046790097	1
4174	4972	31.5	2
4174	5072	31.7	1
4174	5251	32.029452134409	2
4174	6366	34.5	4
4174	7155	36.1	19
4174	8359	38.6	5
4174	8638	39.1	5
4174	8816	39.600180480026	4
4174	8928	39.805687624115	1
4174	8932	39.806790233522	1
4174	10144	42.4	6
4174	10236	42.6	1
4174	10439	43.001991563411	3
4174	10716	43.511388863098	4
4174	10865	43.816488283028	2
4174	12009	45.9	4
4174	12246	46.5	6