version 2
run Stability-132-20130526-18:56:03-1898
attr configname Stability
attr datetime 20130526-18:56:03
attr experiment Stability
attr inifile omnetpp.ini
attr iterationvars $0=1e-7
attr iterationvars2 "$0=1e-7, $repetition=2"
attr measurement $0=1e-7
attr network Network
attr processid 1898
attr repetition 2
attr replication #2
attr resultdir results
attr runnumber 132
attr seedset 132

vector 12900  Network.churner  inGoingSizeSig:vector  ETV
vector 12834  Network.dyn_peer[10]  lookupHopsSig:vector  ETV
vector 12835  Network.dyn_peer[10]  lookupStabilitySig:vector  ETV
vector 12836  Network.dyn_peer[10]  lookupTimeSig:vector  ETV
vector 12852  Network.dyn_peer[16]  lookupHopsSig:vector  ETV
vector 12853  Network.dyn_peer[16]  lookupStabilitySig:vector  ETV
vector 12854  Network.dyn_peer[16]  lookupTimeSig:vector  ETV
vector 12807  Network.dyn_peer[1]  lookupHopsSig:vector  ETV
vector 12808  Network.dyn_peer[1]  lookupStabilitySig:vector  ETV
vector 12809  Network.dyn_peer[1]  lookupTimeSig:vector  ETV
vector 12810  Network.dyn_peer[2]  lookupHopsSig:vector  ETV
vector 12811  Network.dyn_peer[2]  lookupStabilitySig:vector  ETV
vector 12812  Network.dyn_peer[2]  lookupTimeSig:vector  ETV
vector 12822  Network.dyn_peer[6]  lookupHopsSig:vector  ETV
vector 12823  Network.dyn_peer[6]  lookupStabilitySig:vector  ETV
vector 12824  Network.dyn_peer[6]  lookupTimeSig:vector  ETV
vector 12831  Network.dyn_peer[9]  lookupHopsSig:vector  ETV
vector 12832  Network.dyn_peer[9]  lookupStabilitySig:vector  ETV
vector 12833  Network.dyn_peer[9]  lookupTimeSig:vector  ETV
vector 12840  Network.dyn_peer[12]  lookupHopsSig:vector  ETV
vector 12841  Network.dyn_peer[12]  lookupStabilitySig:vector  ETV
vector 12842  Network.dyn_peer[12]  lookupTimeSig:vector  ETV
vector 12864  Network.dyn_peer[20]  lookupHopsSig:vector  ETV
vector 12865  Network.dyn_peer[20]  lookupStabilitySig:vector  ETV
vector 12866  Network.dyn_peer[20]  lookupTimeSig:vector  ETV
vector 12876  Network.dyn_peer[24]  lookupHopsSig:vector  ETV
vector 12877  Network.dyn_peer[24]  lookupStabilitySig:vector  ETV
vector 12878  Network.dyn_peer[24]  lookupTimeSig:vector  ETV
vector 12879  Network.dyn_peer[25]  lookupHopsSig:vector  ETV
vector 12880  Network.dyn_peer[25]  lookupStabilitySig:vector  ETV
vector 12881  Network.dyn_peer[25]  lookupTimeSig:vector  ETV
vector 12882  Network.dyn_peer[26]  lookupHopsSig:vector  ETV
vector 12883  Network.dyn_peer[26]  lookupStabilitySig:vector  ETV
vector 12884  Network.dyn_peer[26]  lookupTimeSig:vector  ETV
vector 12804  Network.dyn_peer[0]  lookupHopsSig:vector  ETV
vector 12805  Network.dyn_peer[0]  lookupStabilitySig:vector  ETV
vector 12806  Network.dyn_peer[0]  lookupTimeSig:vector  ETV
vector 12813  Network.dyn_peer[3]  lookupHopsSig:vector  ETV
vector 12814  Network.dyn_peer[3]  lookupStabilitySig:vector  ETV
vector 12815  Network.dyn_peer[3]  lookupTimeSig:vector  ETV
vector 12816  Network.dyn_peer[4]  lookupHopsSig:vector  ETV
vector 12817  Network.dyn_peer[4]  lookupStabilitySig:vector  ETV
vector 12818  Network.dyn_peer[4]  lookupTimeSig:vector  ETV
vector 12819  Network.dyn_peer[5]  lookupHopsSig:vector  ETV
vector 12820  Network.dyn_peer[5]  lookupStabilitySig:vector  ETV
vector 12821  Network.dyn_peer[5]  lookupTimeSig:vector  ETV
vector 12825  Network.dyn_peer[7]  lookupHopsSig:vector  ETV
vector 12826  Network.dyn_peer[7]  lookupStabilitySig:vector  ETV
vector 12827  Network.dyn_peer[7]  lookupTimeSig:vector  ETV
vector 12843  Network.dyn_peer[13]  lookupHopsSig:vector  ETV
vector 12844  Network.dyn_peer[13]  lookupStabilitySig:vector  ETV
vector 12845  Network.dyn_peer[13]  lookupTimeSig:vector  ETV
vector 12858  Network.dyn_peer[18]  lookupHopsSig:vector  ETV
vector 12859  Network.dyn_peer[18]  lookupStabilitySig:vector  ETV
vector 12860  Network.dyn_peer[18]  lookupTimeSig:vector  ETV
vector 12870  Network.dyn_peer[22]  lookupHopsSig:vector  ETV
vector 12871  Network.dyn_peer[22]  lookupStabilitySig:vector  ETV
vector 12872  Network.dyn_peer[22]  lookupTimeSig:vector  ETV
vector 12873  Network.dyn_peer[23]  lookupHopsSig:vector  ETV
vector 12874  Network.dyn_peer[23]  lookupStabilitySig:vector  ETV
vector 12875  Network.dyn_peer[23]  lookupTimeSig:vector  ETV
vector 12888  Network.dyn_peer[28]  lookupHopsSig:vector  ETV
vector 12889  Network.dyn_peer[28]  lookupStabilitySig:vector  ETV
vector 12890  Network.dyn_peer[28]  lookupTimeSig:vector  ETV
vector 12837  Network.dyn_peer[11]  lookupHopsSig:vector  ETV
vector 12838  Network.dyn_peer[11]  lookupStabilitySig:vector  ETV
vector 12839  Network.dyn_peer[11]  lookupTimeSig:vector  ETV
vector 12849  Network.dyn_peer[15]  lookupHopsSig:vector  ETV
vector 12850  Network.dyn_peer[15]  lookupStabilitySig:vector  ETV
vector 12851  Network.dyn_peer[15]  lookupTimeSig:vector  ETV
vector 12855  Network.dyn_peer[17]  lookupHopsSig:vector  ETV
vector 12856  Network.dyn_peer[17]  lookupStabilitySig:vector  ETV
vector 12857  Network.dyn_peer[17]  lookupTimeSig:vector  ETV
vector 12861  Network.dyn_peer[19]  lookupHopsSig:vector  ETV
vector 12862  Network.dyn_peer[19]  lookupStabilitySig:vector  ETV
vector 12863  Network.dyn_peer[19]  lookupTimeSig:vector  ETV
vector 12867  Network.dyn_peer[21]  lookupHopsSig:vector  ETV
vector 12868  Network.dyn_peer[21]  lookupStabilitySig:vector  ETV
vector 12869  Network.dyn_peer[21]  lookupTimeSig:vector  ETV
vector 12828  Network.dyn_peer[8]  lookupHopsSig:vector  ETV
vector 12829  Network.dyn_peer[8]  lookupStabilitySig:vector  ETV
vector 12830  Network.dyn_peer[8]  lookupTimeSig:vector  ETV
vector 12891  Network.dyn_peer[29]  lookupHopsSig:vector  ETV
vector 12892  Network.dyn_peer[29]  lookupStabilitySig:vector  ETV
vector 12893  Network.dyn_peer[29]  lookupTimeSig:vector  ETV
vector 12897  Network.dyn_peer[31]  lookupHopsSig:vector  ETV
vector 12898  Network.dyn_peer[31]  lookupStabilitySig:vector  ETV
vector 12899  Network.dyn_peer[31]  lookupTimeSig:vector  ETV
vector 12846  Network.dyn_peer[14]  lookupHopsSig:vector  ETV
vector 12847  Network.dyn_peer[14]  lookupStabilitySig:vector  ETV
vector 12848  Network.dyn_peer[14]  lookupTimeSig:vector  ETV
vector 12894  Network.dyn_peer[30]  lookupHopsSig:vector  ETV
vector 12895  Network.dyn_peer[30]  lookupStabilitySig:vector  ETV
vector 12896  Network.dyn_peer[30]  lookupTimeSig:vector  ETV
vector 12885  Network.dyn_peer[27]  lookupHopsSig:vector  ETV
vector 12886  Network.dyn_peer[27]  lookupStabilitySig:vector  ETV
vector 12887  Network.dyn_peer[27]  lookupTimeSig:vector  ETV
12804	204	20.2000000001	2
12804	434	20.6000000001	3
12804	591	20.804694054356	1
12804	626	20.812367212928	1
12804	988	21.212467213028	4
12804	1808	21.912467213028	6
12804	2871	22.721285818616	7
12804	4854	24.125671509645	14
12804	5123	24.335590804748	1
12804	5165	24.410069386733	8
12804	5358	24.541779184548	1
12804	5852	25.019501454822	5
12804	5949	25.059492230013	5
12804	6517	25.563884379854	5
12804	6971	25.963884379854	3
12804	7180	26.16669800833	1
12804	7958	26.774085935751	6
12804	8707	27.374085935751	6
12804	9094	27.674936735749	2
12804	9273	27.840871696572	2
12804	9282	27.84804453465	4
12804	9692	28.248410888458	4
12804	9869	28.448410888458	1
12804	10840	29.34929653542	9
12804	12653	30.876245956816	11
12804	13058	31.176245956816	2
12804	13666	31.627813156204	2
12804	13842	31.783372420025	5
12804	14373	32.232760962654	5
12804	14415	32.286435646325	4
12804	14441	32.289466447847	4
12804	15420	33.09456131089	8
12804	15980	33.59456131089	4
12804	17982	35.301531325927	19
12804	18003	35.313228481377	11
12804	18253	35.517347195325	2
12804	18550	35.817347195325	2
12804	19099	36.325716585743	4
12804	19810	36.928558675162	5
12804	20234	37.335091193669	3
12804	20406	37.511140635609	3
12804	20686	37.716097323244	2
12804	21653	38.616097323244	10
12804	22272	39.125395187608	4
12804	22541	39.311174561955	1
12804	22592	39.33126071704	1
12804	22605	39.334080799033	1
12804	22620	39.334180799133	0
12804	22885	39.534180799133	1
12804	23271	39.844779759927	1
12804	23494	40.043681540658	5
12804	23526	40.052665279088	1
12804	23610	40.137239879724	1
12804	24269	40.639044565584	6
12804	24957	41.239044565584	5
12804	25224	41.45353228302	1
12804	25814	41.964635754572	4
12804	26061	42.166801644181	1
12804	26066	42.168982642895	1
12804	26411	42.469082642995	3
12804	27166	43.169082642995	7
12804	27506	43.484809725748	2
12804	28220	44.125466208182	6
12804	28330	44.189933942142	7
12804	28622	44.398150170212	2
12804	28913	44.603169343785	2
12804	29395	45.003169343785	4
12804	29868	45.405358410094	3
12804	30017	45.507282132795	1
12804	31292	46.707282132795	11
12804	31457	46.907894489769	1
12804	31773	47.214307839068	2
12804	32126	47.521975604249	3
12804	33461	48.759005267694	8
12804	34406	49.559005267694	7
12804	34700	49.815330219384	6
12804	34850	49.968492705292	3
12804	35050	50.132857788545	2
12804	35306	50.334970079571	2
12804	36061	50.934970079571	6
12804	37122	51.835654219693	8
12804	37377	52.037456179723	1
12804	37772	52.3393999243	3
12804	37912	52.464355204761	4
12804	38180	52.744212391048	3
12804	38184	52.744824009037	7
12804	38317	52.844924009137	1
12804	38536	53.044924009137	1
12804	38984	53.44671879992	3
12804	39487	53.856203752938	3
12804	40048	54.256777343896	3
12804	40642	54.759813157437	6
12804	40859	54.959813157437	1
12804	41347	55.360929914862	3
12804	41700	55.634722178268	4
12804	41726	55.663231857002	2
12804	41940	55.834968346822	1
12804	42844	56.440835891173	7
12804	43320	56.840835891173	3
12804	43602	57.042220258419	1
12804	44080	57.447053117598	3
12804	44811	58.051734312571	6
12804	45334	58.452553150316	4
12804	45759	58.752553150316	2
12804	46233	59.155725718962	5
12804	47097	59.76280703416	6
12804	47864	60.467983607078	7
12804	48367	60.977704279612	4
12804	48954	61.484893277828	5
12804	49444	61.884893277828	4
12804	50128	62.442616647712	9
12804	50275	62.529869500419	3
12804	50369	62.593402013687	7
12804	50372	62.593480738518	7
12804	50685	62.846179389807	3
12804	50704	62.848471055032	3
12804	50775	62.897863529129	2
12804	50784	62.901182696101	2
12804	51544	63.501282696201	6
12804	51771	63.701282696201	1
12804	52182	64.106471113908	3
12804	52946	64.850069616799	9
12804	54225	65.950169616899	12
12804	54832	66.450169616899	4
12804	55702	67.159292309506	7
12804	56310	67.659392309606	5
12804	56922	68.159392309606	4
12804	57479	68.560008189585	3
12804	58193	69.168700289378	6
12804	58508	69.378330924241	1
12804	58600	69.462317758209	1
12804	58903	69.672096937456	1
12804	59038	69.781304009019	3
12804	59449	70.184849885171	4
12804	60123	70.784849885171	6
12804	60817	71.424181124602	5
12804	61053	71.593442766614	9
12804	61334	71.833513577644	3
12804	62404	72.737177125742	11
12804	63074	73.312393441073	3
12804	64322	74.312493441173	10
12804	65897	75.712493441173	15
12804	66163	75.919863899178	2
12804	67077	76.635022321121	2
12804	67178	76.719863899178	7
12804	68440	77.629726294127	10
12804	69063	78.129726294127	4
12804	69495	78.534111746385	3
12804	70113	79.03651318521	5
12804	70790	79.63651318521	6
12804	71239	80.038445982925	3
12804	71448	80.245684077331	1
12804	71555	80.381218776625	4
12804	71578	80.390369903451	1
12804	71637	80.447524333001	1
12804	71875	80.655696654019	1
12804	72032	80.755796654119	1
12804	73785	82.212652151814	9
12804	74032	82.412652151814	1
12804	75292	83.522300420667	11
12804	77496	85.223728572726	19
12804	78121	85.723728572726	4
12804	79226	86.630124231127	8
12804	79958	87.192403539229	3
12804	80202	87.394792025483	1
12804	80225	87.416939495417	6
12804	80390	87.538360000184	8
12804	80793	87.845204181394	3
12804	81954	88.736135126601	2
12804	82657	89.336135126601	6
12804	83157	89.744003893031	3
12804	83666	90.152817500048	4
12804	84023	90.493275642683	3
12804	84333	90.701804781078	1
12804	84460	90.807239583241	4
12804	84963	91.216131607584	5
12804	85921	91.916131607584	6
12804	86493	92.4255928746	4
12804	87043	92.928257180159	4
12804	87242	93.031414235781	1
12804	88053	93.731414235781	6
12804	88285	93.937385994551	1
12804	88517	94.149056486219	1
12804	88594	94.185842405554	1
12804	89253	94.688928510982	5
12804	89975	95.388928510982	6
12804	90532	95.889359809667	5
12804	90693	96.041629613677	5
12804	91073	96.291405413624	3
12804	91271	96.45055140949	4
12804	91327	96.485825820883	3
12804	91692	96.79043279352	2
12804	91755	96.850785422792	3
12804	91928	96.9931124871	2
12804	92137	97.160635820871	3
12804	92149	97.170285525649	2
12804	92210	97.198713180663	8
12804	92228	97.199175264348	0
12804	93011	97.999175264348	7
12804	93620	98.514789014245	4
12804	93732	98.605100766249	5
12804	93879	98.718801925355	1
12804	94149	98.921282422554	3
12804	94368	99.121282422554	1
12804	94846	99.525961071771	3
12804	95550	100.126620283372	5
12804	95746	100.32977873235	1
12804	95872	100.452547328236	1
12804	96085	100.654111746427	1
12804	96714	101.161426001631	5
12804	97122	101.465735255963	2
12804	97371	101.671736160541	1
12804	97502	101.765410627158	1
12804	97749	101.974308698662	2
12804	98331	102.474308698662	4
12804	98745	102.776938725551	2
12804	99311	103.277038725651	5
12804	99761	103.677038725651	3
12804	100232	104.084966152214	5
12804	100967	104.667571551062	2
12804	101399	104.970820139125	3
12804	101847	105.370820139125	3
12804	102050	105.574633775502	1
12804	102675	106.080021604031	5
12804	102953	106.279836680878	4
12804	103123	106.381228612702	5
12804	103308	106.580254366056	2
12804	103712	106.980354366156	4
12804	104025	107.280354366156	2
12804	104347	107.59022303763	3
12804	104743	107.89022303763	2
12804	105063	108.136886615582	2
12804	105207	108.236986615682	1
12804	106063	108.936986615682	6
12804	106464	109.240745786708	3
12804	106795	109.547292511833	3
12804	107614	110.157140745748	6
12804	107675	110.219528411295	5
12804	107993	110.426569485728	2
12804	108599	110.926569485728	4
12804	109472	111.535388069849	5
12804	109894	111.882108794109	7
12804	109951	111.941313985902	3
12804	109993	111.971080870847	12
12804	110389	112.272796015848	3
12804	111311	113.072796015848	7
12804	111866	113.574381066217	4
12804	112779	114.372133864704	2
12804	113006	114.58204541957	9
12804	113351	114.8731812651	4
12804	113357	114.87484211953	4
12804	113753	115.17494211963	3
12804	114618	115.87494211963	6
12804	114990	116.281467908568	3
12804	115177	116.484652371095	1
12804	115262	116.549290295128	1
12804	117095	118.049390295228	17
12804	117622	118.449390295228	3
12804	118138	118.755042652493	4
12804	119045	119.360845897323	6
12804	119878	119.960845897323	6
12804	120804	120.816901961084	6
12804	121467	121.327553128225	3
12804	121536	121.369212604339	13
12804	122035	121.735524737685	3
12804	122105	121.771268399091	4
12804	122856	122.276878136853	6
12804	123201	122.577608859185	2
12804	123693	123.087359176573	5
12804	124119	123.497890048645	3
12804	124724	124.097990048745	6
12804	125938	125.139487381282	6
12804	126509	125.539487381282	5
12804	127016	125.946098214122	3
12804	127424	126.34318793453	3
12804	128019	126.84328793463	5
12804	128664	127.409229214855	1
12804	130659	128.715416447634	15
12804	131014	129.015416447634	2
12804	131426	129.415726760052	3
12804	131771	129.719431200347	3
12804	132103	130.019431200347	2
12804	132220	130.119709949791	1
12804	132788	130.619709949791	4
12804	133420	131.120546714909	4
12804	133826	131.42256361177	5
12804	133991	131.521530776241	3
12804	134252	131.726331984803	2
12804	135583	132.931488006971	11
12804	135789	133.1320613659	1
12804	136402	133.732580838246	6
12805	204	20.2000000001	0.75
12805	434	20.6000000001	0.625
12805	591	20.804694054356	0.875
12805	626	20.812367212928	0.875
12805	988	21.212467213028	0.5
12805	1808	21.912467213028	0.25
12805	2871	22.721285818616	0.125
12805	4854	24.125671509645	-0.75
12805	5123	24.335590804748	0.875
12805	5165	24.410069386733	0
12805	5358	24.541779184548	0.875
12805	5852	25.019501454822	0.44444441795349
12805	5949	25.059492230013	0.375
12805	6517	25.563884379854	0.375
12805	6971	25.963884379854	0.625
12805	7180	26.16669800833	0.875
12805	7958	26.774085935751	0.25
12805	8707	27.374085935751	0.25
12805	9094	27.674936735749	0.75
12805	9273	27.840871696572	0.75
12805	9282	27.84804453465	0.5
12805	9692	28.248410888458	0.5
12805	9869	28.448410888458	0.875
12805	10840	29.34929653542	-0.125
12805	12653	30.876245956816	-0.375
12805	13058	31.176245956816	0.75
12805	13666	31.627813156204	0.75
12805	13842	31.783372420025	0.375
12805	14373	32.232760962654	0.375
12805	14415	32.286435646325	0.5
12805	14441	32.289466447847	0.5
12805	15420	33.09456131089	0
12805	15980	33.59456131089	0.5
12805	17982	35.301531325927	-1.375
12805	18003	35.313228481377	-0.375
12805	18253	35.517347195325	0.75
12805	18550	35.817347195325	0.75
12805	19099	36.325716585743	0.5
12805	19810	36.928558675162	0.375
12805	20234	37.335091193669	0.625
12805	20406	37.511140635609	0.625
12805	20686	37.716097323244	0.75
12805	21653	38.616097323244	-0.25
12805	22272	39.125395187608	0.5
12805	22541	39.311174561955	0.875
12805	22592	39.33126071704	0.875
12805	22605	39.334080799033	0.875
12805	22620	39.334180799133	1
12805	22885	39.534180799133	0.875
12805	23271	39.844779759927	0.875
12805	23494	40.043681540658	0.375
12805	23526	40.052665279088	0.875
12805	23610	40.137239879724	0.875
12805	24269	40.639044565584	0.25
12805	24957	41.239044565584	0.375
12805	25224	41.45353228302	0.875
12805	25814	41.964635754572	0.5
12805	26061	42.166801644181	0.875
12805	26066	42.168982642895	0.875
12805	26411	42.469082642995	0.625
12805	27166	43.169082642995	0.125
12805	27506	43.484809725748	0.75
12805	28220	44.125466208182	0.25
12805	28330	44.189933942142	0.125
12805	28622	44.398150170212	0.75
12805	28913	44.603169343785	0.75
12805	29395	45.003169343785	0.5
12805	29868	45.405358410094	0.625
12805	30017	45.507282132795	0.875
12805	31292	46.707282132795	-0.375
12805	31457	46.907894489769	0.875
12805	31773	47.214307839068	0.75
12805	32126	47.521975604249	0.625
12805	33461	48.759005267694	0.11111110448837
12805	34406	49.559005267694	0.125
12805	34700	49.815330219384	0.25
12805	34850	49.968492705292	0.625
12805	35050	50.132857788545	0.75
12805	35306	50.334970079571	0.75
12805	36061	50.934970079571	0.25
12805	37122	51.835654219693	0
12805	37377	52.037456179723	0.875
12805	37772	52.3393999243	0.625
12805	37912	52.464355204761	0.5
12805	38180	52.744212391048	0.625
12805	38184	52.744824009037	0.125
12805	38317	52.844924009137	0.875
12805	38536	53.044924009137	0.875
12805	38984	53.44671879992	0.625
12805	39487	53.856203752938	0.625
12805	40048	54.256777343896	0.625
12805	40642	54.759813157437	0.25
12805	40859	54.959813157437	0.875
12805	41347	55.360929914862	0.625
12805	41700	55.634722178268	0.5
12805	41726	55.663231857002	0.75
12805	41940	55.834968346822	0.875
12805	42844	56.440835891173	0.125
12805	43320	56.840835891173	0.625
12805	43602	57.042220258419	0.875
12805	44080	57.447053117598	0.625
12805	44811	58.051734312571	0.25
12805	45334	58.452553150316	0.5
12805	45759	58.752553150316	0.75
12805	46233	59.155725718962	0.375
12805	47097	59.76280703416	0.25
12805	47864	60.467983607078	0.125
12805	48367	60.977704279612	0.5
12805	48954	61.484893277828	0.375
12805	49444	61.884893277828	0.5
12805	50128	62.442616647712	-0.125
12805	50275	62.529869500419	0.625
12805	50369	62.593402013687	0.125
12805	50372	62.593480738518	0.125
12805	50685	62.846179389807	0.625
12805	50704	62.848471055032	0.625
12805	50775	62.897863529129	0.75
12805	50784	62.901182696101	0.75
12805	51544	63.501282696201	0.25
12805	51771	63.701282696201	0.875
12805	52182	64.106471113908	0.625
12805	52946	64.850069616799	-0.125
12805	54225	65.950169616899	-0.5
12805	54832	66.450169616899	0.5
12805	55702	67.159292309506	0.125
12805	56310	67.659392309606	0.375
12805	56922	68.159392309606	0.5
12805	57479	68.560008189585	0.625
12805	58193	69.168700289378	0.25
12805	58508	69.378330924241	0.875
12805	58600	69.462317758209	0.875
12805	58903	69.672096937456	0.875
12805	59038	69.781304009019	0.625
12805	59449	70.184849885171	0.5
12805	60123	70.784849885171	0.25
12805	60817	71.424181124602	0.375
12805	61053	71.593442766614	-0.125
12805	61334	71.833513577644	0.625
12805	62404	72.737177125742	-0.375
12805	63074	73.312393441073	0.625
12805	64322	74.312493441173	-0.25
12805	65897	75.712493441173	-0.875
12805	66163	75.919863899178	0.75
12805	67077	76.635022321121	0.75
12805	67178	76.719863899178	0.125
12805	68440	77.629726294127	-0.25
12805	69063	78.129726294127	0.5
12805	69495	78.534111746385	0.625
12805	70113	79.03651318521	0.375
12805	70790	79.63651318521	0.25
12805	71239	80.038445982925	0.625
12805	71448	80.245684077331	0.875
12805	71555	80.381218776625	0.5
12805	71578	80.390369903451	0.875
12805	71637	80.447524333001	0.875
12805	71875	80.655696654019	0.875
12805	72032	80.755796654119	0.875
12805	73785	82.212652151814	-0.125
12805	74032	82.412652151814	0.875
12805	75292	83.522300420667	-0.375
12805	77496	85.223728572726	-1.375
12805	78121	85.723728572726	0.5
12805	79226	86.630124231127	0
12805	79958	87.192403539229	0.625
12805	80202	87.394792025483	0.875
12805	80225	87.416939495417	0.25
12805	80390	87.538360000184	0
12805	80793	87.845204181394	0.625
12805	81954	88.736135126601	0.75
12805	82657	89.336135126601	0.25
12805	83157	89.744003893031	0.625
12805	83666	90.152817500048	0.5
12805	84023	90.493275642683	0.625
12805	84333	90.701804781078	0.875
12805	84460	90.807239583241	0.5
12805	84963	91.216131607584	0.375
12805	85921	91.916131607584	0.25
12805	86493	92.4255928746	0.5
12805	87043	92.928257180159	0.5
12805	87242	93.031414235781	0.875
12805	88053	93.731414235781	0.25
12805	88285	93.937385994551	0.875
12805	88517	94.149056486219	0.875
12805	88594	94.185842405554	0.875
12805	89253	94.688928510982	0.375
12805	89975	95.388928510982	0.25
12805	90532	95.889359809667	0.375
12805	90693	96.041629613677	0.375
12805	91073	96.291405413624	0.625
12805	91271	96.45055140949	0.5
12805	91327	96.485825820883	0.625
12805	91692	96.79043279352	0.75
12805	91755	96.850785422792	0.625
12805	91928	96.9931124871	0.75
12805	92137	97.160635820871	0.625
12805	92149	97.170285525649	0.75
12805	92210	97.198713180663	0
12805	92228	97.199175264348	1
12805	93011	97.999175264348	0.125
12805	93620	98.514789014245	0.5
12805	93732	98.605100766249	0.375
12805	93879	98.718801925355	0.875
12805	94149	98.921282422554	0.625
12805	94368	99.121282422554	0.875
12805	94846	99.525961071771	0.625
12805	95550	100.126620283372	0.375
12805	95746	100.32977873235	0.875
12805	95872	100.452547328236	0.875
12805	96085	100.654111746427	0.875
12805	96714	101.161426001631	0.375
12805	97122	101.465735255963	0.75
12805	97371	101.671736160541	0.875
12805	97502	101.765410627158	0.875
12805	97749	101.974308698662	0.75
12805	98331	102.474308698662	0.5
12805	98745	102.776938725551	0.75
12805	99311	103.277038725651	0.375
12805	99761	103.677038725651	0.625
12805	100232	104.084966152214	0.375
12805	100967	104.667571551062	0.75
12805	101399	104.970820139125	0.625
12805	101847	105.370820139125	0.625
12805	102050	105.574633775502	0.875
12805	102675	106.080021604031	0.375
12805	102953	106.279836680878	0.5
12805	103123	106.381228612702	0.375
12805	103308	106.580254366056	0.75
12805	103712	106.980354366156	0.5
12805	104025	107.280354366156	0.75
12805	104347	107.59022303763	0.625
12805	104743	107.89022303763	0.75
12805	105063	108.136886615582	0.75
12805	105207	108.236986615682	0.875
12805	106063	108.936986615682	0.25
12805	106464	109.240745786708	0.625
12805	106795	109.547292511833	0.625
12805	107614	110.157140745748	0.25
12805	107675	110.219528411295	0.375
12805	107993	110.426569485728	0.75
12805	108599	110.926569485728	0.5
12805	109472	111.535388069849	0.375
12805	109894	111.882108794109	0.125
12805	109951	111.941313985902	0.625
12805	109993	111.971080870847	-0.5
12805	110389	112.272796015848	0.625
12805	111311	113.072796015848	0.125
12805	111866	113.574381066217	0.5
12805	112779	114.372133864704	0.75
12805	113006	114.58204541957	-0.125
12805	113351	114.8731812651	0.5
12805	113357	114.87484211953	0.5
12805	113753	115.17494211963	0.625
12805	114618	115.87494211963	0.25
12805	114990	116.281467908568	0.625
12805	115177	116.484652371095	0.875
12805	115262	116.549290295128	0.875
12805	117095	118.049390295228	-1.125
12805	117622	118.449390295228	0.625
12805	118138	118.755042652493	0.5
12805	119045	119.360845897323	0.25
12805	119878	119.960845897323	0.25
12805	120804	120.816901961084	0.25
12805	121467	121.327553128225	0.625
12805	121536	121.369212604339	-0.625
12805	122035	121.735524737685	0.625
12805	122105	121.771268399091	0.5
12805	122856	122.276878136853	0.25
12805	123201	122.577608859185	0.75
12805	123693	123.087359176573	0.375
12805	124119	123.497890048645	0.625
12805	124724	124.097990048745	0.25
12805	125938	125.139487381282	0.25
12805	126509	125.539487381282	0.375
12805	127016	125.946098214122	0.625
12805	127424	126.34318793453	0.625
12805	128019	126.84328793463	0.375
12805	128664	127.409229214855	0.875
12805	130659	128.715416447634	-0.875
12805	131014	129.015416447634	0.75
12805	131426	129.415726760052	0.625
12805	131771	129.719431200347	0.625
12805	132103	130.019431200347	0.75
12805	132220	130.119709949791	0.875
12805	132788	130.619709949791	0.5
12805	133420	131.120546714909	0.5
12805	133826	131.42256361177	0.375
12805	133991	131.521530776241	0.625
12805	134252	131.726331984803	0.75
12805	135583	132.931488006971	-0.375
12805	135789	133.1320613659	0.875
12805	136402	133.732580838246	0.25
12806	204	20.2000000001	0.2
12806	434	20.6000000001	0.4
12806	591	20.804694054356	0.2
12806	626	20.812367212928	0.2
12806	988	21.212467213028	0.4
12806	1808	21.912467213028	0.7
12806	2871	22.721285818616	0.8
12806	4854	24.125671509645	1.4
12806	5123	24.335590804748	0.2
12806	5165	24.410069386733	0.8
12806	5358	24.541779184548	0.2
12806	5852	25.019501454822	0.6
12806	5949	25.059492230013	0.5
12806	6517	25.563884379854	0.5
12806	6971	25.963884379854	0.4
12806	7180	26.16669800833	0.2
12806	7958	26.774085935751	0.6
12806	8707	27.374085935751	0.6
12806	9094	27.674936735749	0.3
12806	9273	27.840871696572	0.3
12806	9282	27.84804453465	0.5
12806	9692	28.248410888458	0.4
12806	9869	28.448410888458	0.2
12806	10840	29.34929653542	0.9
12806	12653	30.876245956816	1
12806	13058	31.176245956816	0.3
12806	13666	31.627813156204	0.3
12806	13842	31.783372420025	0.6
12806	14373	32.232760962654	0.6
12806	14415	32.286435646325	0.5
12806	14441	32.289466447847	0.5
12806	15420	33.09456131089	0.8
12806	15980	33.59456131089	0.5
12806	17982	35.301531325927	1.7
12806	18003	35.313228481377	1.1
12806	18253	35.517347195325	0.2
12806	18550	35.817347195325	0.3
12806	19099	36.325716585743	0.5
12806	19810	36.928558675162	0.6
12806	20234	37.335091193669	0.4
12806	20406	37.511140635609	0.4
12806	20686	37.716097323244	0.2
12806	21653	38.616097323244	0.9
12806	22272	39.125395187608	0.5
12806	22541	39.311174561955	0.2
12806	22592	39.33126071704	0.2
12806	22605	39.334080799033	0.2
12806	22620	39.334180799133	0
12806	22885	39.534180799133	0.2
12806	23271	39.844779759927	0.2
12806	23494	40.043681540658	0.5
12806	23526	40.052665279088	0.2
12806	23610	40.137239879724	0.2
12806	24269	40.639044565584	0.5
12806	24957	41.239044565584	0.6
12806	25224	41.45353228302	0.2
12806	25814	41.964635754572	0.5
12806	26061	42.166801644181	0.2
12806	26066	42.168982642895	0.2
12806	26411	42.469082642995	0.3
12806	27166	43.169082642995	0.7
12806	27506	43.484809725748	0.3
12806	28220	44.125466208182	0.7
12806	28330	44.189933942142	0.7
12806	28622	44.398150170212	0.2
12806	28913	44.603169343785	0.2
12806	29395	45.003169343785	0.4
12806	29868	45.405358410094	0.4
12806	30017	45.507282132795	0.1
12806	31292	46.707282132795	1.2
12806	31457	46.907894489769	0.2
12806	31773	47.214307839068	0.3
12806	32126	47.521975604249	0.3
12806	33461	48.759005267694	0.8
12806	34406	49.559005267694	0.8
12806	34700	49.815330219384	0.7
12806	34850	49.968492705292	0.4
12806	35050	50.132857788545	0.3
12806	35306	50.334970079571	0.2
12806	36061	50.934970079571	0.6
12806	37122	51.835654219693	0.9
12806	37377	52.037456179723	0.2
12806	37772	52.3393999243	0.3
12806	37912	52.464355204761	0.5
12806	38180	52.744212391048	0.4
12806	38184	52.744824009037	0.7
12806	38317	52.844924009137	0.1
12806	38536	53.044924009137	0.2
12806	38984	53.44671879992	0.4
12806	39487	53.856203752938	0.4
12806	40048	54.256777343896	0.4
12806	40642	54.759813157437	0.5
12806	40859	54.959813157437	0.2
12806	41347	55.360929914862	0.4
12806	41700	55.634722178268	0.5
12806	41726	55.663231857002	0.3
12806	41940	55.834968346822	0.2
12806	42844	56.440835891173	0.6
12806	43320	56.840835891173	0.4
12806	43602	57.042220258419	0.2
12806	44080	57.447053117598	0.4
12806	44811	58.051734312571	0.6
12806	45334	58.452553150316	0.4
12806	45759	58.752553150316	0.3
12806	46233	59.155725718962	0.4
12806	47097	59.76280703416	0.6
12806	47864	60.467983607078	0.7
12806	48367	60.977704279612	0.5
12806	48954	61.484893277828	0.5
12806	49444	61.884893277828	0.4
12806	50128	62.442616647712	0.8
12806	50275	62.529869500419	0.3
12806	50369	62.593402013687	0.7
12806	50372	62.593480738518	0.7
12806	50685	62.846179389807	0.4
12806	50704	62.848471055032	0.4
12806	50775	62.897863529129	0.3
12806	50784	62.901182696101	0.3
12806	51544	63.501282696201	0.6
12806	51771	63.701282696201	0.2
12806	52182	64.106471113908	0.4
12806	52946	64.850069616799	0.9
12806	54225	65.950169616899	1.1
12806	54832	66.450169616899	0.5
12806	55702	67.159292309506	0.7
12806	56310	67.659392309606	0.5
12806	56922	68.159392309606	0.5
12806	57479	68.560008189585	0.4
12806	58193	69.168700289378	0.6
12806	58508	69.378330924241	0.2
12806	58600	69.462317758209	0.2
12806	58903	69.672096937456	0.2
12806	59038	69.781304009019	0.4
12806	59449	70.184849885171	0.4
12806	60123	70.784849885171	0.6
12806	60817	71.424181124602	0.6
12806	61053	71.593442766614	0.8
12806	61334	71.833513577644	0.4
12806	62404	72.737177125742	0.9
12806	63074	73.312393441073	0.4
12806	64322	74.312493441173	1
12806	65897	75.712493441173	1.4
12806	66163	75.919863899178	0.2
12806	67077	76.635022321121	0.3
12806	67178	76.719863899178	0.8
12806	68440	77.629726294127	0.9
12806	69063	78.129726294127	0.5
12806	69495	78.534111746385	0.4
12806	70113	79.03651318521	0.5
12806	70790	79.63651318521	0.6