version 2
run Stability-111-20130526-18:54:34-1898
attr configname Stability
attr datetime 20130526-18:54:34
attr experiment Stability
attr inifile omnetpp.ini
attr iterationvars $0=1e-5
attr iterationvars2 "$0=1e-5, $repetition=1"
attr measurement $0=1e-5
attr network Network
attr processid 1898
attr repetition 1
attr replication #1
attr resultdir results
attr runnumber 111
attr seedset 111

vector 10863  Network.churner  inGoingSizeSig:vector  ETV
vector 10779  Network.dyn_peer[4]  lookupHopsSig:vector  ETV
vector 10780  Network.dyn_peer[4]  lookupStabilitySig:vector  ETV
vector 10781  Network.dyn_peer[4]  lookupTimeSig:vector  ETV
vector 10782  Network.dyn_peer[5]  lookupHopsSig:vector  ETV
vector 10783  Network.dyn_peer[5]  lookupStabilitySig:vector  ETV
vector 10784  Network.dyn_peer[5]  lookupTimeSig:vector  ETV
vector 10836  Network.dyn_peer[23]  lookupHopsSig:vector  ETV
vector 10837  Network.dyn_peer[23]  lookupStabilitySig:vector  ETV
vector 10838  Network.dyn_peer[23]  lookupTimeSig:vector  ETV
vector 10839  Network.dyn_peer[24]  lookupHopsSig:vector  ETV
vector 10840  Network.dyn_peer[24]  lookupStabilitySig:vector  ETV
vector 10841  Network.dyn_peer[24]  lookupTimeSig:vector  ETV
vector 10857  Network.dyn_peer[30]  lookupHopsSig:vector  ETV
vector 10858  Network.dyn_peer[30]  lookupStabilitySig:vector  ETV
vector 10859  Network.dyn_peer[30]  lookupTimeSig:vector  ETV
vector 10776  Network.dyn_peer[3]  lookupHopsSig:vector  ETV
vector 10777  Network.dyn_peer[3]  lookupStabilitySig:vector  ETV
vector 10778  Network.dyn_peer[3]  lookupTimeSig:vector  ETV
vector 10788  Network.dyn_peer[7]  lookupHopsSig:vector  ETV
vector 10789  Network.dyn_peer[7]  lookupStabilitySig:vector  ETV
vector 10790  Network.dyn_peer[7]  lookupTimeSig:vector  ETV
vector 10797  Network.dyn_peer[10]  lookupHopsSig:vector  ETV
vector 10798  Network.dyn_peer[10]  lookupStabilitySig:vector  ETV
vector 10799  Network.dyn_peer[10]  lookupTimeSig:vector  ETV
vector 10800  Network.dyn_peer[11]  lookupHopsSig:vector  ETV
vector 10801  Network.dyn_peer[11]  lookupStabilitySig:vector  ETV
vector 10802  Network.dyn_peer[11]  lookupTimeSig:vector  ETV
vector 10809  Network.dyn_peer[14]  lookupHopsSig:vector  ETV
vector 10810  Network.dyn_peer[14]  lookupStabilitySig:vector  ETV
vector 10811  Network.dyn_peer[14]  lookupTimeSig:vector  ETV
vector 10812  Network.dyn_peer[15]  lookupHopsSig:vector  ETV
vector 10813  Network.dyn_peer[15]  lookupStabilitySig:vector  ETV
vector 10814  Network.dyn_peer[15]  lookupTimeSig:vector  ETV
vector 10818  Network.dyn_peer[17]  lookupHopsSig:vector  ETV
vector 10819  Network.dyn_peer[17]  lookupStabilitySig:vector  ETV
vector 10820  Network.dyn_peer[17]  lookupTimeSig:vector  ETV
vector 10821  Network.dyn_peer[18]  lookupHopsSig:vector  ETV
vector 10822  Network.dyn_peer[18]  lookupStabilitySig:vector  ETV
vector 10823  Network.dyn_peer[18]  lookupTimeSig:vector  ETV
vector 10824  Network.dyn_peer[19]  lookupHopsSig:vector  ETV
vector 10825  Network.dyn_peer[19]  lookupStabilitySig:vector  ETV
vector 10826  Network.dyn_peer[19]  lookupTimeSig:vector  ETV
vector 10827  Network.dyn_peer[20]  lookupHopsSig:vector  ETV
vector 10828  Network.dyn_peer[20]  lookupStabilitySig:vector  ETV
vector 10829  Network.dyn_peer[20]  lookupTimeSig:vector  ETV
vector 10848  Network.dyn_peer[27]  lookupHopsSig:vector  ETV
vector 10849  Network.dyn_peer[27]  lookupStabilitySig:vector  ETV
vector 10850  Network.dyn_peer[27]  lookupTimeSig:vector  ETV
vector 10770  Network.dyn_peer[1]  lookupHopsSig:vector  ETV
vector 10771  Network.dyn_peer[1]  lookupStabilitySig:vector  ETV
vector 10772  Network.dyn_peer[1]  lookupTimeSig:vector  ETV
vector 10785  Network.dyn_peer[6]  lookupHopsSig:vector  ETV
vector 10786  Network.dyn_peer[6]  lookupStabilitySig:vector  ETV
vector 10787  Network.dyn_peer[6]  lookupTimeSig:vector  ETV
vector 10791  Network.dyn_peer[8]  lookupHopsSig:vector  ETV
vector 10792  Network.dyn_peer[8]  lookupStabilitySig:vector  ETV
vector 10793  Network.dyn_peer[8]  lookupTimeSig:vector  ETV
vector 10794  Network.dyn_peer[9]  lookupHopsSig:vector  ETV
vector 10795  Network.dyn_peer[9]  lookupStabilitySig:vector  ETV
vector 10796  Network.dyn_peer[9]  lookupTimeSig:vector  ETV
vector 10842  Network.dyn_peer[25]  lookupHopsSig:vector  ETV
vector 10843  Network.dyn_peer[25]  lookupStabilitySig:vector  ETV
vector 10844  Network.dyn_peer[25]  lookupTimeSig:vector  ETV
vector 10773  Network.dyn_peer[2]  lookupHopsSig:vector  ETV
vector 10774  Network.dyn_peer[2]  lookupStabilitySig:vector  ETV
vector 10775  Network.dyn_peer[2]  lookupTimeSig:vector  ETV
vector 10803  Network.dyn_peer[12]  lookupHopsSig:vector  ETV
vector 10804  Network.dyn_peer[12]  lookupStabilitySig:vector  ETV
vector 10805  Network.dyn_peer[12]  lookupTimeSig:vector  ETV
vector 10806  Network.dyn_peer[13]  lookupHopsSig:vector  ETV
vector 10807  Network.dyn_peer[13]  lookupStabilitySig:vector  ETV
vector 10808  Network.dyn_peer[13]  lookupTimeSig:vector  ETV
vector 10815  Network.dyn_peer[16]  lookupHopsSig:vector  ETV
vector 10816  Network.dyn_peer[16]  lookupStabilitySig:vector  ETV
vector 10817  Network.dyn_peer[16]  lookupTimeSig:vector  ETV
vector 10830  Network.dyn_peer[21]  lookupHopsSig:vector  ETV
vector 10831  Network.dyn_peer[21]  lookupStabilitySig:vector  ETV
vector 10832  Network.dyn_peer[21]  lookupTimeSig:vector  ETV
vector 10833  Network.dyn_peer[22]  lookupHopsSig:vector  ETV
vector 10834  Network.dyn_peer[22]  lookupStabilitySig:vector  ETV
vector 10835  Network.dyn_peer[22]  lookupTimeSig:vector  ETV
vector 10845  Network.dyn_peer[26]  lookupHopsSig:vector  ETV
vector 10846  Network.dyn_peer[26]  lookupStabilitySig:vector  ETV
vector 10847  Network.dyn_peer[26]  lookupTimeSig:vector  ETV
vector 10854  Network.dyn_peer[29]  lookupHopsSig:vector  ETV
vector 10855  Network.dyn_peer[29]  lookupStabilitySig:vector  ETV
vector 10856  Network.dyn_peer[29]  lookupTimeSig:vector  ETV
vector 10767  Network.dyn_peer[0]  lookupHopsSig:vector  ETV
vector 10768  Network.dyn_peer[0]  lookupStabilitySig:vector  ETV
vector 10769  Network.dyn_peer[0]  lookupTimeSig:vector  ETV
vector 10851  Network.dyn_peer[28]  lookupHopsSig:vector  ETV
vector 10852  Network.dyn_peer[28]  lookupStabilitySig:vector  ETV
vector 10853  Network.dyn_peer[28]  lookupTimeSig:vector  ETV
vector 10860  Network.dyn_peer[31]  lookupHopsSig:vector  ETV
vector 10861  Network.dyn_peer[31]  lookupStabilitySig:vector  ETV
vector 10862  Network.dyn_peer[31]  lookupTimeSig:vector  ETV
10767	371	20.40000001	4
10767	560	20.70000001	3
10767	842	21.010980094629	2
10767	1355	21.520860880504	4
10767	1563	21.720960890504	2
10767	2159	22.231204561637	4
10767	2517	22.531304571637	3
10767	3351	23.231304571637	6
10767	3488	23.338183622289	1
10767	3993	23.838183622289	4
10767	4495	24.243763286004	3
10767	4510	24.245999136675	3
10767	4980	24.647765416105	3
10767	5009	24.65232511655	3
10767	5011	24.6524239691	3
10767	5241	24.856040866494	1
10767	5245	24.858406826616	1
10767	5250	24.861412326674	1
10767	5266	24.863829504046	0
10767	6350	25.763829504046	9
10767	6353	25.76693178851	9
10767	6877	26.256742430631	6
10767	7098	26.541608547591	6
10767	7519	26.874619976618	11
10767	8391	27.684115959005	8
10767	8842	28.084115959005	3
10767	9163	28.285057488905	1
10767	9474	28.583651655115	2
10767	9593	28.691154186815	3
10767	9686	28.78658119262	2
10767	9828	28.892890359329	2
10767	10088	29.099244867787	1
10767	10227	29.194044589901	4
10767	10523	29.397778148595	1
10767	12097	30.705663602372	17
10767	12323	30.905663602372	1
10767	12806	31.31672011564	3
10767	13050	31.519646356536	2
10767	13605	32.019958088928	4
10767	13814	32.221346608779	1
10767	13869	32.284780522271	4
10767	14042	32.421800699715	1
10767	14116	32.483202586128	1
10767	14295	32.638834063357	1
10767	14918	33.140949539681	5
10767	15956	34.140949539681	9
10767	16784	34.844538738547	7
10767	17236	35.245269719067	3
10767	17544	35.549491701031	2
10767	17766	35.753164785155	1
10767	18181	36.054356738975	3
10767	18550	36.364068601139	2
10767	18828	36.567136121995	1
10767	18891	36.623708397519	1
10767	20017	37.627713068566	11
10767	20250	37.840886991561	1
10767	20895	38.340987001561	5
10767	21654	38.948784071276	1
10767	21874	39.148784071276	1
10767	22281	39.457274944865	2
10767	22508	39.658304216089	1
10767	22732	39.866424752422	2
10767	23343	40.438206011427	3
10767	24608	41.438206011427	9
10767	25005	41.738616664558	2
10767	25123	41.824554484051	1
10767	27884	43.929215021517	24
10767	28175	44.229215021517	2
10767	29118	45.035360052538	8
10767	29716	45.544681140404	5
10767	30038	45.796109328563	3
10767	30770	46.303399428622	5
10767	31158	46.603399428622	2
10767	31533	46.904036794292	3
10767	31670	47.015753245886	0
10767	32220	47.522938136629	4
10767	32256	47.556808645944	8
10767	32567	47.758101605297	3
10767	32795	47.958101605297	1
10767	33522	48.593294799256	4
10767	34357	49.393294799256	8
10767	34634	49.671778293317	1
10767	34697	49.701203294264	3
10767	34934	49.904708591481	1
10767	35840	50.710867955635	8
10767	36679	51.410867955635	6
10767	36981	51.7200688685	2
10767	37347	52.029573910928	3
10767	38252	52.856696116552	3
10767	38918	53.366977247765	4
10767	39567	53.929573910928	21
10767	40066	54.299250309983	11
10767	40170	54.374606701867	9
10767	41042	55.080337317369	7
10767	41409	55.387022958751	2
10767	41807	55.67931910581	1
10767	41914	55.767816161212	3
10767	42120	55.882166046633	2
10767	42723	56.383169345774	5
10767	43103	56.683169345774	2
10767	44374	57.786207191487	11
10767	44395	57.792199280871	11
10767	44615	58.000426918255	1
10767	44699	58.072430692395	3
10767	45459	58.779430033863	7
10767	46196	59.379430033863	5
10767	46446	59.579530043863	2
10767	47012	59.979530043863	3
10767	47285	60.189351998516	1
10767	47338	60.20868319058	1
10767	47562	60.409835887077	1
10767	47704	60.519651598926	1
10767	48030	60.819651598926	2
10767	48396	61.224567380668	3
10767	48663	61.433391412216	2
10767	49388	62.033391412216	6
10767	51497	63.833740827906	19
10767	51499	63.836041512802	19
10767	51987	64.338412171827	4
10767	51990	64.343918383245	4
10767	52625	64.847414611198	4
10767	52632	64.857687811907	4
10767	52887	65.039771488512	7
10767	53409	65.466037463125	5
10767	53665	65.666137473125	2
10767	54156	66.066137473125	3
10767	54517	66.374120870917	2
10767	54824	66.586204552491	2
10767	56381	67.892943454246	16
10767	56978	68.392943454246	4
10767	58215	69.397600737501	11
10767	58947	69.997600737501	5
10767	59190	70.201272725682	1
10767	59641	70.608644605064	3
10767	60112	71.009762502577	4
10767	60419	71.309762502577	3
10767	60917	71.813682231473	2
10767	60935	71.819264337458	4
10767	61209	72.116283115163	2
10767	61220	72.126568458818	4
10767	61549	72.427984819444	3
10767	62661	73.327984819444	8
10767	63428	73.928166100537	5
10767	63807	74.306526956104	14
10767	63989	74.514715820329	2
10767	64468	74.914715820329	3
10767	64754	75.134243845748	2
10767	65758	75.934343855748	8
10767	67006	77.034343855748	12
10767	67365	77.435505367239	3
10767	67624	77.644444818267	1
10767	68226	78.052169794431	4
10767	69126	78.752169794431	6
10767	69572	79.161279777986	3
10767	69812	79.365394154236	1
10767	70511	79.872456604471	5
10767	71045	80.372456604471	4
10767	71278	80.573785126086	4
10767	71855	81.075715512382	7
10767	72056	81.277763463459	1
10767	72300	81.480806856199	1
10767	72326	81.502597306899	1
10767	72466	81.609219374164	1
10767	73209	82.249920169321	2
10767	75290	83.949920169321	18
10767	75885	84.351364774516	4
10767	75898	84.361074323761	4
10767	76132	84.588337565108	9
10767	76263	84.65332555861	2
10767	76413	84.791187966819	1
10767	76617	84.935259498087	4
10767	76970	85.143408098603	4
10767	77015	85.165283720928	9
10767	77062	85.232318157272	3
10767	77075	85.235284963479	3
10767	77338	85.435384973479	2
10767	77735	85.735384973479	3
10767	78459	86.251980329023	4
10767	79463	87.053391480676	9
10767	79791	87.359612444946	2
10767	80604	88.160648924968	8
10767	81217	88.670516363683	5
10767	81268	88.683817434042	1
10767	82281	89.685013412475	10
10767	82555	89.985013412475	2
10767	82892	90.289953787885	2
10767	83320	90.699815016954	3
10767	83999	91.202251015938	4
10767	84533	91.705048803998	4
10767	84896	92.012291784501	2
10767	84904	92.012971423947	2
10767	85285	92.300759089842	14
10767	85498	92.415455484936	4
10767	85504	92.417214486594	3
10767	85509	92.417460599434	3
10767	86625	93.318312431713	9
10767	86989	93.618312431713	2
10767	87503	94.018547303203	4
10767	87735	94.199329641931	4
10767	87898	94.327038301321	2
10767	87937	94.331595594955	0
10767	89205	95.414030582139	2
10767	89389	95.519762158033	1
10767	90383	96.319762158033	8
10767	90836	96.720868476908	3
10767	90967	96.838815371938	3
10767	91259	97.092882397821	3
10767	91433	97.224496675209	5
10767	91657	97.397572393376	2
10767	91907	97.63031132191	3
10767	92103	97.807128341789	3
10767	92395	98.065340562033	5
10767	93333	98.765440572033	7
10767	93752	99.065440572033	3
10767	94052	99.374230825033	2
10767	94588	99.874330835033	5
10767	94911	100.174330835033	2
10767	95304	100.575901209072	3
10767	95702	100.90153940329	3
10767	95931	101.085587924598	4
10767	97123	101.985981163403	9
10767	97832	102.585981163403	5
10767	98216	102.895779212596	2
10767	98716	103.279189453885	1
10767	98996	103.494113927598	2
10767	99005	103.509516475331	6
10767	99251	103.729034788435	1
10767	99460	103.862950284094	1
10767	100199	104.372893671152	5
10767	101129	105.072893671152	7
10767	102107	105.982058800626	9
10767	102934	106.68238685123	7
10767	103854	107.38238685123	6
10767	104479	107.99036287643	6
10767	105147	108.509687377947	4
10767	105150	108.510321094522	4
10767	105771	109.017327290803	4
10767	106197	109.320929863291	3
10767	106519	109.620929863291	2
10767	106765	109.849006329726	1
10767	107154	110.158977911439	2
10767	107564	110.473609394151	3
10767	107566	110.47416368343	3
10767	108382	111.077082483827	5
10767	108390	111.082729377521	5
10767	108557	111.221057092627	5
10767	108654	111.277136790058	1
10767	108914	111.486860545879	2
10767	109175	111.689664020136	1
10767	110242	112.697142287127	11
10767	110430	112.920508970755	3
10767	110937	113.373965072693	3
10767	110982	113.4304009505	5
10767	112224	114.530927014293	11
10767	112679	114.930927014293	3
10767	112973	115.240584088698	2
10767	113553	115.745978612523	5
10767	114501	116.545978612523	7
10767	115123	117.050207769431	4
10767	115725	117.550307779431	5
10767	116146	117.950307779431	4
10767	116507	118.257304885126	3
10767	116987	118.657304885126	3
10767	117554	119.160275216043	4
10767	118543	120.065780897474	11
10767	118881	120.365780897474	3
10767	119737	121.08724970541	7
10767	120486	121.689368026929	6
10767	120551	121.752264094034	6
10767	120951	122.074041641647	5
10767	121176	122.253711157808	4
10767	121308	122.361454426938	4
10767	121597	122.565349975214	3
10767	122225	122.990809077041	3
10767	122493	123.193473623727	2
10767	123379	123.896255844991	8
10767	124420	124.682460030798	4
10767	125023	125.190131877065	4
10767	125238	125.392614620256	1
10767	125845	125.89678715266	7
10767	126731	126.57599842371	2
10767	126829	126.69678715266	7
10767	126952	126.780233428155	1
10767	127518	127.281146502581	5
10767	128078	127.781146502581	4
10767	128288	127.990320978867	1
10767	129199	128.79738074324	7
10767	129784	129.292492320708	11
10767	130017	129.500904711925	2
10767	131055	130.300904711925	7
10767	131487	130.604820479385	2
10767	131944	131.014686384806	3
10767	132160	131.185108349542	4
10767	132169	131.223503695812	1
10767	133298	132.130759170336	9
10767	133636	132.430759170336	2
10767	135001	133.830949894998	16
10767	135094	134.03738989677	1
10767	135162	134.2456018288	1
10768	371	20.40000001	0.5
10768	560	20.70000001	0.625
10768	842	21.010980094629	0.75
10768	1355	21.520860880504	0.5
10768	1563	21.720960890504	0.75
10768	2159	22.231204561637	0.5
10768	2517	22.531304571637	0.625
10768	3351	23.231304571637	0.25
10768	3488	23.338183622289	0.875
10768	3993	23.838183622289	0.5
10768	4495	24.243763286004	0.625
10768	4510	24.245999136675	0.625
10768	4980	24.647765416105	0.625
10768	5009	24.65232511655	0.625
10768	5011	24.6524239691	0.625
10768	5241	24.856040866494	0.875
10768	5245	24.858406826616	0.875
10768	5250	24.861412326674	0.875
10768	5266	24.863829504046	1
10768	6350	25.763829504046	-0.125
10768	6353	25.76693178851	-0.125
10768	6877	26.256742430631	0.25
10768	7098	26.541608547591	0.25
10768	7519	26.874619976618	-0.375
10768	8391	27.684115959005	0
10768	8842	28.084115959005	0.625
10768	9163	28.285057488905	0.875
10768	9474	28.583651655115	0.75
10768	9593	28.691154186815	0.625
10768	9686	28.78658119262	0.75
10768	9828	28.892890359329	0.75
10768	10088	29.099244867787	0.875
10768	10227	29.194044589901	0.5
10768	10523	29.397778148595	0.875
10768	12097	30.705663602372	-1.125
10768	12323	30.905663602372	0.875
10768	12806	31.31672011564	0.625
10768	13050	31.519646356536	0.75
10768	13605	32.019958088928	0.5
10768	13814	32.221346608779	0.875
10768	13869	32.284780522271	0.5
10768	14042	32.421800699715	0.875
10768	14116	32.483202586128	0.875
10768	14295	32.638834063357	0.875
10768	14918	33.140949539681	0.375
10768	15956	34.140949539681	-0.125
10768	16784	34.844538738547	0.125
10768	17236	35.245269719067	0.625
10768	17544	35.549491701031	0.75
10768	17766	35.753164785155	0.875
10768	18181	36.054356738975	0.625
10768	18550	36.364068601139	0.75
10768	18828	36.567136121995	0.875
10768	18891	36.623708397519	0.875
10768	20017	37.627713068566	-0.375
10768	20250	37.840886991561	0.875
10768	20895	38.340987001561	0.375
10768	21654	38.948784071276	0.875
10768	21874	39.148784071276	0.875
10768	22281	39.457274944865	0.75
10768	22508	39.658304216089	0.875
10768	22732	39.866424752422	0.75
10768	23343	40.438206011427	0.625
10768	24608	41.438206011427	-0.125
10768	25005	41.738616664558	0.75
10768	25123	41.824554484051	0.875
10768	27884	43.929215021517	-2
10768	28175	44.229215021517	0.75
10768	29118	45.035360052538	0
10768	29716	45.544681140404	0.375
10768	30038	45.796109328563	0.625
10768	30770	46.303399428622	0.375
10768	31158	46.603399428622	0.75
10768	31533	46.904036794292	0.625
10768	31670	47.015753245886	1
10768	32220	47.522938136629	0.5
10768	32256	47.556808645944	0
10768	32567	47.758101605297	0.66666665673256
10768	32795	47.958101605297	0.875
10768	33522	48.593294799256	0.5
10768	34357	49.393294799256	0
10768	34634	49.671778293317	0.875
10768	34697	49.701203294264	0.625
10768	34934	49.904708591481	0.875
10768	35840	50.710867955635	0
10768	36679	51.410867955635	0.25
10768	36981	51.7200688685	0.75
10768	37347	52.029573910928	0.625
10768	38252	52.856696116552	0.625
10768	38918	53.366977247765	0.5
10768	39567	53.929573910928	-1.625
10768	40066	54.299250309983	-0.375
10768	40170	54.374606701867	-0.125
10768	41042	55.080337317369	0.125
10768	41409	55.387022958751	0.75
10768	41807	55.67931910581	0.875
10768	41914	55.767816161212	0.625
10768	42120	55.882166046633	0.75
10768	42723	56.383169345774	0.375
10768	43103	56.683169345774	0.75
10768	44374	57.786207191487	-0.375
10768	44395	57.792199280871	-0.375
10768	44615	58.000426918255	0.875
10768	44699	58.072430692395	0.625
10768	45459	58.779430033863	0.125
10768	46196	59.379430033863	0.375
10768	46446	59.579530043863	0.75
10768	47012	59.979530043863	0.625
10768	47285	60.189351998516	0.875
10768	47338	60.20868319058	0.875
10768	47562	60.409835887077	0.875
10768	47704	60.519651598926	0.875
10768	48030	60.819651598926	0.75
10768	48396	61.224567380668	0.625
10768	48663	61.433391412216	0.77777777612209
10768	49388	62.033391412216	0.25
10768	51497	63.833740827906	-1.375
10768	51499	63.836041512802	-1.375
10768	51987	64.338412171827	0.5
10768	51990	64.343918383245	0.5
10768	52625	64.847414611198	0.5
10768	52632	64.857687811907	0.5
10768	52887	65.039771488512	0.125
10768	53409	65.466037463125	0.375
10768	53665	65.666137473125	0.75
10768	54156	66.066137473125	0.625
10768	54517	66.374120870917	0.75
10768	54824	66.586204552491	0.75
10768	56381	67.892943454246	-1
10768	56978	68.392943454246	0.5
10768	58215	69.397600737501	-0.375
10768	58947	69.997600737501	0.375
10768	59190	70.201272725682	0.875
10768	59641	70.608644605064	0.625
10768	60112	71.009762502577	0.5
10768	60419	71.309762502577	0.625
10768	60917	71.813682231473	0.75
10768	60935	71.819264337458	0.5
10768	61209	72.116283115163	0.75
10768	61220	72.126568458818	0.5
10768	61549	72.427984819444	0.625
10768	62661	73.327984819444	0
10768	63428	73.928166100537	0.375
10768	63807	74.306526956104	-0.75
10768	63989	74.514715820329	0.75
10768	64468	74.914715820329	0.625
10768	64754	75.134243845748	0.75
10768	65758	75.934343855748	0
10768	67006	77.034343855748	-0.5
10768	67365	77.435505367239	0.625
10768	67624	77.644444818267	0.875
10768	68226	78.052169794431	0.5
10768	69126	78.752169794431	0.25
10768	69572	79.161279777986	0.625
10768	69812	79.365394154236	0.875
10768	70511	79.872456604471	0.375
10768	71045	80.372456604471	0.5
10768	71278	80.573785126086	0.5
10768	71855	81.075715512382	0.125
10768	72056	81.277763463459	0.875
10768	72300	81.480806856199	0.875
10768	72326	81.502597306899	0.875
10768	72466	81.609219374164	0.875
10768	73209	82.249920169321	0.75
10768	75290	83.949920169321	-1.25
10768	75885	84.351364774516	0.5
10768	75898	84.361074323761	0.5
10768	76132	84.588337565108	-0.125
10768	76263	84.65332555861	0.75
10768	76413	84.791187966819	0.875
10768	76617	84.935259498087	0.5
10768	76970	85.143408098603	0.5
10768	77015	85.165283720928	-0.125
10768	77062	85.232318157272	0.625
10768	77075	85.235284963479	0.625
10768	77338	85.435384973479	0.75
10768	77735	85.735384973479	0.625
10768	78459	86.251980329023	0.5
10768	79463	87.053391480676	-0.125
10768	79791	87.359612444946	0.75
10768	80604	88.160648924968	0
10768	81217	88.670516363683	0.375
10768	81268	88.683817434042	0.875
10768	82281	89.685013412475	-0.25
10768	82555	89.985013412475	0.75
10768	82892	90.289953787885	0.75
10768	83320	90.699815016954	0.625
10768	83999	91.202251015938	0.5
10768	84533	91.705048803998	0.5
10768	84896	92.012291784501	0.75
10768	84904	92.012971423947	0.75
10768	85285	92.300759089842	-0.75
10768	85498	92.415455484936	0.5
10768	85504	92.417214486594	0.625
10768	85509	92.417460599434	0.625
10768	86625	93.318312431713	-0.125
10768	86989	93.618312431713	0.75
10768	87503	94.018547303203	0.5
10768	87735	94.199329641931	0.5
10768	87898	94.327038301321	0.75
10768	87937	94.331595594955	1
10768	89205	95.414030582139	0.75
10768	89389	95.519762158033	0.875
10768	90383	96.319762158033	0
10768	90836	96.720868476908	0.625
10768	90967	96.838815371938	0.625
10768	91259	97.092882397821	0.625
10768	91433	97.224496675209	0.375
10768	91657	97.397572393376	0.75
10768	91907	97.63031132191	0.625
10768	92103	97.807128341789	0.625
10768	92395	98.065340562033	0.375
10768	93333	98.765440572033	0.125
10768	93752	99.065440572033	0.625
10768	94052	99.374230825033	0.75
10768	94588	99.874330835033	0.375
10768	94911	100.174330835033	0.75
10768	95304	100.575901209072	0.625
10768	95702	100.90153940329	0.625
10768	95931	101.085587924598	0.5
10768	97123	101.985981163403	-0.125
10768	97832	102.585981163403	0.375
10768	98216	102.895779212596	0.75
10768	98716	103.279189453885	0.875
10768	98996	103.494113927598	0.75
10768	99005	103.509516475331	0.25
10768	99251	103.729034788435	0.875
10768	99460	103.862950284094	0.875
10768	100199	104.372893671152	0.375
10768	101129	105.072893671152	0.125
10768	102107	105.982058800626	-0.125
10768	102934	106.68238685123	0.125
10768	103854	107.38238685123	0.25
10768	104479	107.99036287643	0.25
10768	105147	108.509687377947	0.5
10768	105150	108.510321094522	0.5
10768	105771	109.017327290803	0.55555555224419
10768	106197	109.320929863291	0.625
10768	106519	109.620929863291	0.75
10768	106765	109.849006329726	0.875
10768	107154	110.158977911439	0.75
10768	107564	110.473609394151	0.625
10768	107566	110.47416368343	0.625
10768	108382	111.077082483827	0.375
10768	108390	111.082729377521	0.375
10768	108557	111.221057092627	0.375
10768	108654	111.277136790058	0.875
10768	108914	111.486860545879	0.75
10768	109175	111.689664020136	0.875
10768	110242	112.697142287127	-0.375
10768	110430	112.920508970755	0.625
10768	110937	113.373965072693	0.625
10768	110982	113.4304009505	0.375
10768	112224	114.530927014293	-0.375
10768	112679	114.930927014293	0.625
10768	112973	115.240584088698	0.75
10768	113553	115.745978612523	0.44444441795349
10768	114501	116.545978612523	0.125
10768	115123	117.050207769431	0.5
10768	115725	117.550307779431	0.375
10768	116146	117.950307779431	0.5
10768	116507	118.257304885126	0.625
10768	116987	118.657304885126	0.625
10768	117554	119.160275216043	0.5
10768	118543	120.065780897474	-0.375
10768	118881	120.365780897474	0.625
10768	119737	121.08724970541	0.125
10768	120486	121.689368026929	0.25
10768	120551	121.752264094034	0.25
10768	120951	122.074041641647	0.375
10768	121176	122.253711157808	0.5
10768	121308	122.361454426938	0.5
10768	121597	122.565349975214	0.625
10768	122225	122.990809077041	0.625
10768	122493	123.193473623727	0.75
10768	123379	123.896255844991	0
10768	124420	124.682460030798	0.5
10768	125023	125.190131877065	0.5
10768	125238	125.392614620256	0.875
10768	125845	125.89678715266	0.125
10768	126731	126.57599842371	0.75
10768	126829	126.69678715266	0.125
10768	126952	126.780233428155	0.875
10768	127518	127.281146502581	0.375
10768	128078	127.781146502581	0.5
10768	128288	127.990320978867	0.875
10768	129199	128.79738074324	0.125
10768	129784	129.292492320708	-0.375
10768	130017	129.500904711925	0.75
10768	131055	130.300904711925	0.125
10768	131487	130.604820479385	0.75
10768	131944	131.014686384806	0.625
10768	132160	131.185108349542	0.5
10768	132169	131.223503695812	0.875
10768	133298	132.130759170336	-0.125
10768	133636	132.430759170336	0.75
10768	135001	133.830949894998	-1
10768	135094	134.03738989677	0.875
10768	135162	134.2456018288	0.875
10769	371	20.40000001	0.4
10769	560	20.70000001	0.3
10769	842	21.010980094629	0.3
10769	1355	21.520860880504	0.5
10769	1563	21.720960890504	0.2
10769	2159	22.231204561637	0.5
10769	2517	22.531304571637	0.3
10769	3351	23.231304571637	0.7
10769	3488	23.338183622289	0.1
10769	3993	23.838183622289	0.5
10769	4495	24.243763286004	0.4
10769	4510	24.245999136675	0.4
10769	4980	24.647765416105	0.4
10769	5009	24.65232511655	0.4
10769	5011	24.6524239691	0.4
10769	5241	24.856040866494	0.2
10769	5245	24.858406826616	0.2
10769	5250	24.861412326674	0.2
10769	5266	24.863829504046	0
10769	6350	25.763829504046	0.9
10769	6353	25.76693178851	0.9
10769	6877	26.256742430631	0.7
10769	7098	26.541608547591	0.7
10769	7519	26.874619976618	1.1
10769	8391	27.684115959005	0.8
10769	8842	28.084115959005	0.4
10769	9163	28.285057488905	0.2
10769	9474	28.583651655115	0.3
10769	9593	28.691154186815	0.4
10769	9686	28.78658119262	0.2
10769	9828	28.892890359329	0.2
10769	10088	29.099244867787	0.2
10769	10227	29.194044589901	0.4
10769	10523	29.397778148595	0.2
10769	12097	30.705663602372	1.3
10769	12323	30.905663602372	0.2
10769	12806	31.31672011564	0.4
10769	13050	31.519646356536	0.2
10769	13605	32.019958088928	0.5
10769	13814	32.221346608779	0.2
10769	13869	32.284780522271	0.5
10769	14042	32.421800699715	0.2
10769	14116	32.483202586128	0.2
10769	14295	32.638834063357	0.2
10769	14918	33.140949539681	0.5
10769	15956	34.140949539681	1
10769	16784	34.844538738547	0.7
10769	17236	35.245269719067	0.4
10769	17544	35.549491701031	0.3
10769	17766	35.753164785155	0.2
10769	18181	36.054356738975	0.3
10769	18550	36.364068601139	0.3
10769	18828	36.567136121995	0.2
10769	18891	36.623708397519	0.2
10769	20017	37.627713068566	1
10769	20250	37.840886991561	0.2
10769	20895	38.340987001561	0.5
10769	21654	38.948784071276	0.1
10769	21874	39.148784071276	0.2
10769	22281	39.457274944865	0.3
10769	22508	39.658304216089	0.2
10769	22732	39.866424752422	0.2
10769	23343	40.438206011427	0.2
10769	24608	41.438206011427	1
10769	25005	41.738616664558	0.3
10769	25123	41.824554484051	0.2
10769	27884	43.929215021517	2.1
10769	28175	44.229215021517	0.3
10769	29118	45.035360052538	0.8
10769	29716	45.544681140404	0.5
10769	30038	45.796109328563	0.4
10769	30770	46.303399428622	0.5
10769	31158	46.603399428622	0.3
10769	31533	46.904036794292	0.3
10769	31670	47.015753245886	0.1
10769	32220	47.522938136629	0.5
10769	32256	47.556808645944	0.9
10769	32567	47.758101605297	0.2
10769	32795	47.958101605297	0.2
10769	33522	48.593294799256	0.4
10769	34357	49.393294799256	0.8
10769	34634	49.671778293317	0.2
10769	34697	49.701203294264	0.3
10769	34934	49.904708591481	0.2
10769	35840	50.710867955635	0.8
10769	36679	51.410867955635	0.7
10769	36981	51.7200688685	0.3
10769	37347	52.029573910928	0.3
10769	38252	52.856696116552	0.4
10769	38918	53.366977247765	0.5
10769	39567	53.929573910928	1.9
10769	40066	54.299250309983	1.1
10769	40170	54.374606701867	1
10769	41042	55.080337317369	0.7
10769	41409	55.387022958751	0.3
10769	41807	55.67931910581	0.2
10769	41914	55.767816161212	0.3
10769	42120	55.882166046633	0.2
10769	42723	56.383169345774	0.5
10769	43103	56.683169345774	0.3
10769	44374	57.786207191487	1.1
10769	44395	57.792199280871	1.1
10769	44615	58.000426918255	0.2
10769	44699	58.072430692395	0.4
10769	45459	58.779430033863	0.7
10769	46196	59.379430033863	0.6
10769	46446	59.579530043863	0.2
10769	47012	59.979530043863	0.4
10769	47285	60.189351998516	0.2
10769	47338	60.20868319058	0.2
10769	47562	60.409835887077	0.2
10769	47704	60.519651598926	0.1
10769	48030	60.819651598926	0.3
10769	48396	61.224567380668	0.4
10769	48663	61.433391412216	0.2
10769	49388	62.033391412216	0.6
10769	51497	63.833740827906	1.8
10769	51499	63.836041512802	1.8
10769	51987	64.338412171827	0.5
10769	51990	64.343918383245	0.5
10769	52625	64.847414611198	0.5
10769	52632	64.857687811907	0.5
10769	52887	65.039771488512	0.7
10769	53409	65.466037463125	0.6
10769	53665	65.666137473125	0.2
10769	54156	66.066137473125	0.4
10769	54517	66.374120870917	0.3
10769	54824	66.586204552491	0.3
10769	56381	67.892943454246	1.3
10769	56978	68.392943454246	0.5
10769	58215	69.397600737501	1
10769	58947	69.997600737501	0.6
10769	59190	70.201272725682	0.2
10769	59641	70.608644605064	0.4
10769	60112	71.009762502577	0.4