version 2
run Stability-79-20130526-18:52:22-1898
attr configname Stability
attr datetime 20130526-18:52:22
attr experiment Stability
attr inifile omnetpp.ini
attr iterationvars $0=1e-1
attr iterationvars2 "$0=1e-1, $repetition=9"
attr measurement $0=1e-1
attr network Network
attr processid 1898
attr repetition 9
attr replication #9
attr resultdir results
attr runnumber 79
attr seedset 79

vector 7759  Network.churner  inGoingSizeSig:vector  ETV
vector 7690  Network.dyn_peer[9]  lookupHopsSig:vector  ETV
vector 7691  Network.dyn_peer[9]  lookupStabilitySig:vector  ETV
vector 7692  Network.dyn_peer[9]  lookupTimeSig:vector  ETV
vector 7741  Network.dyn_peer[26]  lookupHopsSig:vector  ETV
vector 7742  Network.dyn_peer[26]  lookupStabilitySig:vector  ETV
vector 7743  Network.dyn_peer[26]  lookupTimeSig:vector  ETV
vector 7672  Network.dyn_peer[3]  lookupHopsSig:vector  ETV
vector 7673  Network.dyn_peer[3]  lookupStabilitySig:vector  ETV
vector 7674  Network.dyn_peer[3]  lookupTimeSig:vector  ETV
vector 7675  Network.dyn_peer[4]  lookupHopsSig:vector  ETV
vector 7676  Network.dyn_peer[4]  lookupStabilitySig:vector  ETV
vector 7677  Network.dyn_peer[4]  lookupTimeSig:vector  ETV
vector 7681  Network.dyn_peer[6]  lookupHopsSig:vector  ETV
vector 7682  Network.dyn_peer[6]  lookupStabilitySig:vector  ETV
vector 7683  Network.dyn_peer[6]  lookupTimeSig:vector  ETV
vector 7687  Network.dyn_peer[8]  lookupHopsSig:vector  ETV
vector 7688  Network.dyn_peer[8]  lookupStabilitySig:vector  ETV
vector 7689  Network.dyn_peer[8]  lookupTimeSig:vector  ETV
vector 7702  Network.dyn_peer[13]  lookupHopsSig:vector  ETV
vector 7703  Network.dyn_peer[13]  lookupStabilitySig:vector  ETV
vector 7704  Network.dyn_peer[13]  lookupTimeSig:vector  ETV
vector 7705  Network.dyn_peer[14]  lookupHopsSig:vector  ETV
vector 7706  Network.dyn_peer[14]  lookupStabilitySig:vector  ETV
vector 7707  Network.dyn_peer[14]  lookupTimeSig:vector  ETV
vector 7708  Network.dyn_peer[15]  lookupHopsSig:vector  ETV
vector 7709  Network.dyn_peer[15]  lookupStabilitySig:vector  ETV
vector 7710  Network.dyn_peer[15]  lookupTimeSig:vector  ETV
vector 7720  Network.dyn_peer[19]  lookupHopsSig:vector  ETV
vector 7721  Network.dyn_peer[19]  lookupStabilitySig:vector  ETV
vector 7722  Network.dyn_peer[19]  lookupTimeSig:vector  ETV
vector 7735  Network.dyn_peer[24]  lookupHopsSig:vector  ETV
vector 7736  Network.dyn_peer[24]  lookupStabilitySig:vector  ETV
vector 7737  Network.dyn_peer[24]  lookupTimeSig:vector  ETV
vector 7666  Network.dyn_peer[1]  lookupHopsSig:vector  ETV
vector 7667  Network.dyn_peer[1]  lookupStabilitySig:vector  ETV
vector 7668  Network.dyn_peer[1]  lookupTimeSig:vector  ETV
vector 7684  Network.dyn_peer[7]  lookupHopsSig:vector  ETV
vector 7685  Network.dyn_peer[7]  lookupStabilitySig:vector  ETV
vector 7686  Network.dyn_peer[7]  lookupTimeSig:vector  ETV
vector 7711  Network.dyn_peer[16]  lookupHopsSig:vector  ETV
vector 7712  Network.dyn_peer[16]  lookupStabilitySig:vector  ETV
vector 7713  Network.dyn_peer[16]  lookupTimeSig:vector  ETV
vector 7714  Network.dyn_peer[17]  lookupHopsSig:vector  ETV
vector 7715  Network.dyn_peer[17]  lookupStabilitySig:vector  ETV
vector 7716  Network.dyn_peer[17]  lookupTimeSig:vector  ETV
vector 7723  Network.dyn_peer[20]  lookupHopsSig:vector  ETV
vector 7724  Network.dyn_peer[20]  lookupStabilitySig:vector  ETV
vector 7725  Network.dyn_peer[20]  lookupTimeSig:vector  ETV
vector 7729  Network.dyn_peer[22]  lookupHopsSig:vector  ETV
vector 7730  Network.dyn_peer[22]  lookupStabilitySig:vector  ETV
vector 7731  Network.dyn_peer[22]  lookupTimeSig:vector  ETV
vector 7732  Network.dyn_peer[23]  lookupHopsSig:vector  ETV
vector 7733  Network.dyn_peer[23]  lookupStabilitySig:vector  ETV
vector 7734  Network.dyn_peer[23]  lookupTimeSig:vector  ETV
vector 7738  Network.dyn_peer[25]  lookupHopsSig:vector  ETV
vector 7739  Network.dyn_peer[25]  lookupStabilitySig:vector  ETV
vector 7740  Network.dyn_peer[25]  lookupTimeSig:vector  ETV
vector 7744  Network.dyn_peer[27]  lookupHopsSig:vector  ETV
vector 7745  Network.dyn_peer[27]  lookupStabilitySig:vector  ETV
vector 7746  Network.dyn_peer[27]  lookupTimeSig:vector  ETV
vector 7747  Network.dyn_peer[28]  lookupHopsSig:vector  ETV
vector 7748  Network.dyn_peer[28]  lookupStabilitySig:vector  ETV
vector 7749  Network.dyn_peer[28]  lookupTimeSig:vector  ETV
vector 7693  Network.dyn_peer[10]  lookupHopsSig:vector  ETV
vector 7694  Network.dyn_peer[10]  lookupStabilitySig:vector  ETV
vector 7695  Network.dyn_peer[10]  lookupTimeSig:vector  ETV
vector 7717  Network.dyn_peer[18]  lookupHopsSig:vector  ETV
vector 7718  Network.dyn_peer[18]  lookupStabilitySig:vector  ETV
vector 7719  Network.dyn_peer[18]  lookupTimeSig:vector  ETV
vector 7726  Network.dyn_peer[21]  lookupHopsSig:vector  ETV
vector 7727  Network.dyn_peer[21]  lookupStabilitySig:vector  ETV
vector 7728  Network.dyn_peer[21]  lookupTimeSig:vector  ETV
vector 7753  Network.dyn_peer[30]  lookupHopsSig:vector  ETV
vector 7754  Network.dyn_peer[30]  lookupStabilitySig:vector  ETV
vector 7755  Network.dyn_peer[30]  lookupTimeSig:vector  ETV
vector 7678  Network.dyn_peer[5]  lookupHopsSig:vector  ETV
vector 7679  Network.dyn_peer[5]  lookupStabilitySig:vector  ETV
vector 7680  Network.dyn_peer[5]  lookupTimeSig:vector  ETV
vector 7750  Network.dyn_peer[29]  lookupHopsSig:vector  ETV
vector 7751  Network.dyn_peer[29]  lookupStabilitySig:vector  ETV
vector 7752  Network.dyn_peer[29]  lookupTimeSig:vector  ETV
vector 7756  Network.dyn_peer[31]  lookupHopsSig:vector  ETV
vector 7757  Network.dyn_peer[31]  lookupStabilitySig:vector  ETV
vector 7758  Network.dyn_peer[31]  lookupTimeSig:vector  ETV
vector 7663  Network.dyn_peer[0]  lookupHopsSig:vector  ETV
vector 7664  Network.dyn_peer[0]  lookupStabilitySig:vector  ETV
vector 7665  Network.dyn_peer[0]  lookupTimeSig:vector  ETV
vector 7669  Network.dyn_peer[2]  lookupHopsSig:vector  ETV
vector 7670  Network.dyn_peer[2]  lookupStabilitySig:vector  ETV
vector 7671  Network.dyn_peer[2]  lookupTimeSig:vector  ETV
vector 7696  Network.dyn_peer[11]  lookupHopsSig:vector  ETV
vector 7697  Network.dyn_peer[11]  lookupStabilitySig:vector  ETV
vector 7698  Network.dyn_peer[11]  lookupTimeSig:vector  ETV
vector 7699  Network.dyn_peer[12]  lookupHopsSig:vector  ETV
vector 7700  Network.dyn_peer[12]  lookupStabilitySig:vector  ETV
vector 7701  Network.dyn_peer[12]  lookupTimeSig:vector  ETV
7663	384	20.5001	5
7663	760	21.0001	4
7663	1192	21.409648784338	4
7663	2131	22.118697951896	6
7663	2154	22.120040508696	0
7663	2821	22.720811712271	2
7663	3176	23.120811712271	4
7663	4840	24.444117777822	12
7663	5745	25.144117777822	6
7663	6763	26.051064838403	9
7663	6985	26.251470339819	3
7663	7100	26.354976361369	2
7663	7123	26.359540781132	0
7663	7976	26.959540781132	5
7663	8513	27.368863385564	3
7663	8790	27.567521868146	3
7663	9369	27.976153338334	5
7663	9503	28.077076719529	4
7663	9727	28.277333970315	2
7663	9760	28.28223694335	0
7663	10608	28.984369017984	1
7663	11185	29.384369017984	3
7663	12230	30.084569017984	7
7663	12674	30.484569017984	4
7663	13247	30.98743363008	4
7663	14326	31.994792804008	9
7663	15108	32.634070385269	2
7663	15438	32.932266044189	9
7663	16960	34.335494723925	16
7663	17282	34.635494723925	2
7663	17774	35.0437676014	3
7663	18596	35.75188299477	7
7663	18776	35.856963225145	0
7663	19324	36.345811651715	4
7663	20296	37.251644265062	9
7663	20721	37.651644265062	3
7663	21680	38.561253115274	7
7663	22160	38.961276555454	13
7663	22166	38.962795577042	3
7663	22677	39.365505558137	3
7663	22695	39.371209243647	3
7663	23330	39.872232695092	5
7663	24024	40.372232695092	4
7663	24712	40.87336836312	5
7663	25140	41.268318882254	9
7663	25172	41.27492386576	3
7663	25261	41.370850971398	6
7663	25651	41.678420515339	3
7663	25727	41.768539294857	4
7663	25737	41.772320874983	4
7663	26056	42.072520874983	3
7663	26448	42.372520874983	2
7663	26972	42.877100658025	4
7663	27560	43.368628199243	5
7663	27589	43.384919576157	5
7663	29230	44.78756450451	14
7663	29813	45.18756450451	3
7663	30513	45.792056772408	6
7663	31470	46.599534262176	7
7663	31710	46.802847773422	1
7663	32144	47.10706170663	3
7663	32775	47.60706170663	4
7663	33214	47.919287158238	3
7663	33618	48.225565479568	5
7663	34179	48.6250424376	7
7663	34353	48.73451579781	4
7663	34617	48.944418208659	1
7663	35553	49.748217794456	9
7663	36072	50.148217794456	3
7663	36529	50.548867400021	3
7663	36598	50.601293143834	3
7663	37211	51.101656999384	5
7663	37280	51.158178861329	5
7663	37957	51.763486561911	5
7663	38085	51.904035205644	7
7663	38185	51.977969272695	1
7663	38250	52.060774065368	2
7663	38921	52.669263767411	6
7663	39674	53.269263767411	6
7663	40601	54.109256503681	7
7663	41145	54.617186304173	5
7663	41393	54.822184527046	2
7663	42395	55.622184527046	7
7663	42777	55.931574105217	2
7663	43089	56.239791477312	2
7663	43191	56.303464470612	2
7663	43429	56.510833524609	1
7663	43573	56.61794009188	1
7663	44319	57.286359563959	4
7663	45449	58.186559563959	9
7663	45900	58.486559563959	2
7663	46548	58.994023486871	4
7663	46922	59.303760354463	2
7663	47148	59.534850966974	3
7663	47184	59.604348591405	2
7663	47392	59.806148321465	1
7663	47408	59.808995372631	0
7663	47834	60.152579935513	1
7663	48434	60.622289648846	3
7663	48805	60.922289648846	2
7663	49479	61.530485007442	5
7663	49564	61.629722521615	4
7663	51089	62.929922521615	16
7663	51217	63.029922521615	1
7663	52059	63.83196370457	8
7663	52303	64.04174238853	2
7663	52498	64.24174238853	1
7663	52770	64.451605425251	1
7663	53381	64.961132120492	4
7663	53920	65.369315190738	3
7663	54603	65.899844689366	2
7663	54896	66.152413393306	12
7663	55053	66.303526689677	3
7663	56552	67.40481337658	11
7663	56760	67.60481337658	1
7663	58283	69.00907049578	15
7663	59248	69.910818488542	8
7663	59302	69.981587190749	8
7663	59635	70.38971004426	3
7663	60152	70.997341140266	5
7663	60181	71.018192585774	10
7663	60259	71.098591073814	2
7663	60835	71.613625342286	4
7663	61094	71.821026518298	8
7663	61179	71.897772342308	8
7663	61409	72.045374482012	1
7663	61877	72.445574482012	4
7663	62412	72.945574482012	4
7663	63540	73.950650490588	10
7663	64270	74.559585843279	5
7663	64726	74.959618544652	3
7663	65590	75.760396247907	7
7663	65742	75.869247179276	1
7663	67040	76.88245551453	8
7663	67538	77.28245551453	3
7663	68092	77.783840376083	4
7663	68139	77.850763558489	4
7663	68288	77.997972622597	1
7663	68622	78.307210123084	3
7663	68870	78.507210123084	1
7663	69260	78.815462185481	2
7663	69489	79.021916303465	1
7663	69990	79.423510615919	4
7663	70063	79.473929986686	5
7663	70099	79.478443245852	0
7663	70310	79.678443245852	1
7663	71146	80.379848768235	2
7663	71609	80.88356524509	4
7663	72088	81.395219399113	4
7663	73603	82.695419399113	14
7663	74603	83.502399026908	8
7663	74821	83.709222037426	1
7663	75181	84.011242002229	2
7663	75559	84.319584362915	3
7663	75881	84.619584362915	2
7663	76779	85.33042410383	8
7663	77284	85.737473753781	3
7663	77311	85.797284115098	2
7663	77635	86.043186636995	2
7663	77890	86.26300232875	1
7663	78047	86.397737396779	5
7663	78826	87.104716075756	8
7663	79640	87.904716075756	7
7663	80262	88.340579226115	1
7663	80503	88.541457103742	1
7663	80529	88.557705176844	1
7663	80949	88.910765316238	10
7663	81225	89.146786467579	5
7663	81349	89.266443601035	6
7663	81566	89.519808245127	5
7663	81619	89.550384263765	3
7663	82223	90.052020021891	5
7663	82649	90.352020021891	2
7663	82977	90.655863156215	2
7663	83419	90.962150980968	2
7663	83841	91.269858052993	3
7663	84377	91.769858052993	4
7663	85453	92.629349912112	8
7663	86444	93.529349912112	8
7663	87108	94.129549912112	6
7663	87293	94.329549912112	1
7663	87635	94.643344197273	3
7663	88092	95.046882919405	4
7663	88624	95.646882919405	7
7663	89178	96.147082919405	5
7663	89738	96.647082919405	4
7663	90264	97.04846258049	3
7663	90502	97.257419347454	1
7663	90642	97.363057088102	1
7663	91018	97.660976806921	1
7663	91711	98.260976806921	6
7663	92081	98.565774625546	2
7663	92274	98.758118492	2
7663	92581	98.969064637913	3
7663	92629	98.982252669337	3
7663	92859	99.161657688893	3
7663	92933	99.191587927137	3
7663	93249	99.400628682361	2
7663	93860	99.900628682361	5
7663	94157	100.108994916872	2
7663	94715	100.508994916872	3
7663	95080	100.809194916872	3
7663	95766	101.333158887046	2
7663	97048	102.39817904481	3
7663	98431	103.415335389265	6
7663	98970	103.915335389265	6
7663	99523	104.415695255537	4
7663	99571	104.444918158192	4
7663	100271	105.023277749294	5
7663	100321	105.052835663649	5
7663	100671	105.419291822385	4
7663	100894	105.622189919653	2
7663	101294	105.922189919653	3
7663	101518	106.131613864491	1
7663	102085	106.53809047724	3
7663	102101	106.538753194155	0
7663	103423	107.72453829965	11
7663	103745	108.02453829965	2
7663	104051	108.330473614385	2
7663	105000	109.130673614385	8
7663	105588	109.630673614385	4
7663	105756	109.783844786499	2
7663	106557	110.585972509466	9
7663	107086	111.085972509466	4
7663	107450	111.394777236143	2
7663	108204	111.901013935762	5
7663	108606	112.201013935762	2
7663	108861	112.410815843892	1
7663	109191	112.676379475485	2
7663	109653	112.988199338331	2
7663	109674	112.991398357951	0
7663	110648	113.805893360537	2
7663	111036	114.112034242395	2
7663	111408	114.413066154173	2
7663	111708	114.621105354765	1
7663	111976	114.825215450277	1
7663	112224	115.030961994603	2
7663	112982	115.730961994603	6
7663	113191	115.93236695317	1
7663	113377	116.099495977794	1
7663	113579	116.303659321737	2
7663	113951	116.606547710004	3
7663	114836	117.406547710004	7
7663	115896	118.208571234403	9
7663	115939	118.252918511006	8
7663	116400	118.65366759216	4
7663	117156	119.35366759216	7
7663	117956	119.958679121601	3
7663	119112	120.959048895487	10
7663	119490	121.359048895487	3
7663	120123	121.962367743652	5
7663	120362	122.196534790844	1
7663	120983	122.706304901798	5
7663	121482	123.210981215137	4
7663	122317	123.995189852207	4
7663	122533	124.197850450393	1
7663	122558	124.218504653208	9
7663	122755	124.423701095744	2
7663	124045	125.623701095744	11
7663	124108	125.700286271782	5
7663	124755	126.28623769868	4
7663	125005	126.489877604107	2
7663	125154	126.605336449947	9
7663	125187	126.610114852338	0
7663	125632	127.010114852338	3
7663	126613	127.812085027321	8
7663	126656	127.832809252851	4
7663	127479	128.539638839818	8
7663	127748	128.739638839818	1
7663	128035	128.945052825987	2
7663	128550	129.36035327284	3
7663	128772	129.564701279782	1
7663	128936	129.753841184976	1
7663	129080	129.856736570996	1
7663	130183	130.756736570996	8
7663	130554	131.063589582879	2
7663	130862	131.361866646212	2
7663	130978	131.469377749935	3
7663	131174	131.671122025049	2
7663	131189	131.674014225295	1
7663	131330	131.774218742668	1
7663	131608	132.074218742668	2
7663	132181	132.48383651267	3
7663	132427	132.686155355963	1
7663	132703	132.898250882951	2
7663	133082	133.203323936038	2
7663	133306	133.382693959786	10
7663	133321	133.388883640956	6
7663	134112	133.989083640956	6
7663	135540	135.189083640956	11
7663	136364	135.897678342143	7
7664	384	20.5001	0.375
7664	760	21.0001	0.5
7664	1192	21.409648784338	0.5
7664	2131	22.118697951896	0.25
7664	2154	22.120040508696	1
7664	2821	22.720811712271	0.75
7664	3176	23.120811712271	0.5
7664	4840	24.444117777822	-0.5
7664	5745	25.144117777822	0.25
7664	6763	26.051064838403	0
7664	6985	26.251470339819	0.625
7664	7100	26.354976361369	0.75
7664	7123	26.359540781132	1
7664	7976	26.959540781132	0.375
7664	8513	27.368863385564	0.625
7664	8790	27.567521868146	0.625
7664	9369	27.976153338334	0.375
7664	9503	28.077076719529	0.5
7664	9727	28.277333970315	0.75
7664	9760	28.28223694335	1
7664	10608	28.984369017984	0.875
7664	11185	29.384369017984	0.625
7664	12230	30.084569017984	0.125
7664	12674	30.484569017984	0.5
7664	13247	30.98743363008	0.5
7664	14326	31.994792804008	-0.125
7664	15108	32.634070385269	0.75
7664	15438	32.932266044189	-0.125
7664	16960	34.335494723925	-1
7664	17282	34.635494723925	0.75
7664	17774	35.0437676014	0.625
7664	18596	35.75188299477	0.125
7664	18776	35.856963225145	1
7664	19324	36.345811651715	0.5
7664	20296	37.251644265062	-0.125
7664	20721	37.651644265062	0.625
7664	21680	38.561253115274	0.125
7664	22160	38.961276555454	-0.625
7664	22166	38.962795577042	0.625
7664	22677	39.365505558137	0.625
7664	22695	39.371209243647	0.625
7664	23330	39.872232695092	0.375
7664	24024	40.372232695092	0.5
7664	24712	40.87336836312	0.375
7664	25140	41.268318882254	-0.125
7664	25172	41.27492386576	0.625
7664	25261	41.370850971398	0.25
7664	25651	41.678420515339	0.625
7664	25727	41.768539294857	0.5
7664	25737	41.772320874983	0.5
7664	26056	42.072520874983	0.625
7664	26448	42.372520874983	0.75
7664	26972	42.877100658025	0.5
7664	27560	43.368628199243	0.375
7664	27589	43.384919576157	0.375
7664	29230	44.78756450451	-0.75
7664	29813	45.18756450451	0.625
7664	30513	45.792056772408	0.25
7664	31470	46.599534262176	0.125
7664	31710	46.802847773422	0.875
7664	32144	47.10706170663	0.625
7664	32775	47.60706170663	0.5
7664	33214	47.919287158238	0.625
7664	33618	48.225565479568	0.375
7664	34179	48.6250424376	0.125
7664	34353	48.73451579781	0.5
7664	34617	48.944418208659	0.875
7664	35553	49.748217794456	-0.125
7664	36072	50.148217794456	0.625
7664	36529	50.548867400021	0.625
7664	36598	50.601293143834	0.625
7664	37211	51.101656999384	0.375
7664	37280	51.158178861329	0.375
7664	37957	51.763486561911	0.375
7664	38085	51.904035205644	0.125
7664	38185	51.977969272695	0.875
7664	38250	52.060774065368	0.75
7664	38921	52.669263767411	0.25
7664	39674	53.269263767411	0.25
7664	40601	54.109256503681	0.125
7664	41145	54.617186304173	0.375
7664	41393	54.822184527046	0.75
7664	42395	55.622184527046	0.125
7664	42777	55.931574105217	0.75
7664	43089	56.239791477312	0.75
7664	43191	56.303464470612	0.75
7664	43429	56.510833524609	0.875
7664	43573	56.61794009188	0.875
7664	44319	57.286359563959	0.5
7664	45449	58.186559563959	-0.125
7664	45900	58.486559563959	0.75
7664	46548	58.994023486871	0.5
7664	46922	59.303760354463	0.75
7664	47148	59.534850966974	0.625
7664	47184	59.604348591405	0.75
7664	47392	59.806148321465	0.875
7664	47408	59.808995372631	1
7664	47834	60.152579935513	0.875
7664	48434	60.622289648846	0.625
7664	48805	60.922289648846	0.75
7664	49479	61.530485007442	0.375
7664	49564	61.629722521615	0.5
7664	51089	62.929922521615	-1
7664	51217	63.029922521615	0.875
7664	52059	63.83196370457	0
7664	52303	64.04174238853	0.75
7664	52498	64.24174238853	0.875
7664	52770	64.451605425251	0.875
7664	53381	64.961132120492	0.5
7664	53920	65.369315190738	0.625
7664	54603	65.899844689366	0.75
7664	54896	66.152413393306	-0.5
7664	55053	66.303526689677	0.625
7664	56552	67.40481337658	-0.375
7664	56760	67.60481337658	0.875
7664	58283	69.00907049578	-0.875
7664	59248	69.910818488542	0
7664	59302	69.981587190749	0
7664	59635	70.38971004426	0.625
7664	60152	70.997341140266	0.375
7664	60181	71.018192585774	-0.25
7664	60259	71.098591073814	0.75
7664	60835	71.613625342286	0.5
7664	61094	71.821026518298	0
7664	61179	71.897772342308	0
7664	61409	72.045374482012	0.875
7664	61877	72.445574482012	0.5
7664	62412	72.945574482012	0.5
7664	63540	73.950650490588	-0.11111116409302
7664	64270	74.559585843279	0.375
7664	64726	74.959618544652	0.625
7664	65590	75.760396247907	0.125
7664	65742	75.869247179276	0.875
7664	67040	76.88245551453	0
7664	67538	77.28245551453	0.625
7664	68092	77.783840376083	0.5
7664	68139	77.850763558489	0.5
7664	68288	77.997972622597	0.875
7664	68622	78.307210123084	0.625
7664	68870	78.507210123084	0.875
7664	69260	78.815462185481	0.75
7664	69489	79.021916303465	0.875
7664	69990	79.423510615919	0.5
7664	70063	79.473929986686	0.375
7664	70099	79.478443245852	1
7664	70310	79.678443245852	0.875
7664	71146	80.379848768235	0.75
7664	71609	80.88356524509	0.5
7664	72088	81.395219399113	0.5
7664	73603	82.695419399113	-0.75
7664	74603	83.502399026908	0
7664	74821	83.709222037426	0.875
7664	75181	84.011242002229	0.75
7664	75559	84.319584362915	0.625
7664	75881	84.619584362915	0.75
7664	76779	85.33042410383	0
7664	77284	85.737473753781	0.625
7664	77311	85.797284115098	0.75
7664	77635	86.043186636995	0.75
7664	77890	86.26300232875	0.875
7664	78047	86.397737396779	0.375
7664	78826	87.104716075756	0
7664	79640	87.904716075756	0.125
7664	80262	88.340579226115	0.875
7664	80503	88.541457103742	0.875
7664	80529	88.557705176844	0.875
7664	80949	88.910765316238	-0.25
7664	81225	89.146786467579	0.375
7664	81349	89.266443601035	0.25
7664	81566	89.519808245127	0.375
7664	81619	89.550384263765	0.625
7664	82223	90.052020021891	0.375
7664	82649	90.352020021891	0.75
7664	82977	90.655863156215	0.75
7664	83419	90.962150980968	0.75
7664	83841	91.269858052993	0.625
7664	84377	91.769858052993	0.5
7664	85453	92.629349912112	0
7664	86444	93.529349912112	0
7664	87108	94.129549912112	0.25
7664	87293	94.329549912112	0.875
7664	87635	94.643344197273	0.625
7664	88092	95.046882919405	0.5
7664	88624	95.646882919405	0.125
7664	89178	96.147082919405	0.375
7664	89738	96.647082919405	0.5
7664	90264	97.04846258049	0.625
7664	90502	97.257419347454	0.875
7664	90642	97.363057088102	0.875
7664	91018	97.660976806921	0.875
7664	91711	98.260976806921	0.25
7664	92081	98.565774625546	0.75
7664	92274	98.758118492	0.75
7664	92581	98.969064637913	0.625
7664	92629	98.982252669337	0.625
7664	92859	99.161657688893	0.625
7664	92933	99.191587927137	0.625
7664	93249	99.400628682361	0.75
7664	93860	99.900628682361	0.375
7664	94157	100.108994916872	0.75
7664	94715	100.508994916872	0.625
7664	95080	100.809194916872	0.625
7664	95766	101.333158887046	0.75
7664	97048	102.39817904481	0.625
7664	98431	103.415335389265	0.25
7664	98970	103.915335389265	0.25
7664	99523	104.415695255537	0.5
7664	99571	104.444918158192	0.5
7664	100271	105.023277749294	0.375
7664	100321	105.052835663649	0.375
7664	100671	105.419291822385	0.5
7664	100894	105.622189919653	0.75
7664	101294	105.922189919653	0.625
7664	101518	106.131613864491	0.875
7664	102085	106.53809047724	0.625
7664	102101	106.538753194155	1
7664	103423	107.72453829965	-0.375
7664	103745	108.02453829965	0.75
7664	104051	108.330473614385	0.75
7664	105000	109.130673614385	0
7664	105588	109.630673614385	0.5
7664	105756	109.783844786499	0.75
7664	106557	110.585972509466	-0.125
7664	107086	111.085972509466	0.5
7664	107450	111.394777236143	0.75
7664	108204	111.901013935762	0.375
7664	108606	112.201013935762	0.75
7664	108861	112.410815843892	0.875
7664	109191	112.676379475485	0.75
7664	109653	112.988199338331	0.75
7664	109674	112.991398357951	1
7664	110648	113.805893360537	0.75
7664	111036	114.112034242395	0.75
7664	111408	114.413066154173	0.75
7664	111708	114.621105354765	0.875
7664	111976	114.825215450277	0.875
7664	112224	115.030961994603	0.75
7664	112982	115.730961994603	0.25
7664	113191	115.93236695317	0.875
7664	113377	116.099495977794	0.875
7664	113579	116.303659321737	0.75
7664	113951	116.606547710004	0.625
7664	114836	117.406547710004	0.125
7664	115896	118.208571234403	-0.125
7664	115939	118.252918511006	0
7664	116400	118.65366759216	0.5
7664	117156	119.35366759216	0.125
7664	117956	119.958679121601	0.625
7664	119112	120.959048895487	-0.25
7664	119490	121.359048895487	0.625
7664	120123	121.962367743652	0.375
7664	120362	122.196534790844	0.875
7664	120983	122.706304901798	0.375
7664	121482	123.210981215137	0.5
7664	122317	123.995189852207	0.5
7664	122533	124.197850450393	0.875
7664	122558	124.218504653208	-0.125
7664	122755	124.423701095744	0.75
7664	124045	125.623701095744	-0.375
7664	124108	125.700286271782	0.375
7664	124755	126.28623769868	0.5
7664	125005	126.489877604107	0.75
7664	125154	126.605336449947	-0.125
7664	125187	126.610114852338	1
7664	125632	127.010114852338	0.625
7664	126613	127.812085027321	0
7664	126656	127.832809252851	0.5
7664	127479	128.539638839818	0
7664	127748	128.739638839818	0.875
7664	128035	128.945052825987	0.75
7664	128550	129.36035327284	0.625
7664	128772	129.564701279782	0.875
7664	128936	129.753841184976	0.875
7664	129080	129.856736570996	0.875
7664	130183	130.756736570996	0
7664	130554	131.063589582879	0.75
7664	130862	131.361866646212	0.75
7664	130978	131.469377749935	0.625
7664	131174	131.671122025049	0.75
7664	131189	131.674014225295	0.875
7664	131330	131.774218742668	0.875
7664	131608	132.074218742668	0.75
7664	132181	132.48383651267	0.625
7664	132427	132.686155355963	0.875
7664	132703	132.898250882951	0.75
7664	133082	133.203323936038	0.75
7664	133306	133.382693959786	-0.25
7664	133321	133.388883640956	0.25
7664	134112	133.989083640956	0.25
7664	135540	135.189083640956	-0.375
7664	136364	135.897678342143	0.125
7665	384	20.5001	0.5
7665	760	21.0001	0.5
7665	1192	21.409648784338	0.4
7665	2131	22.118697951896	0.7
7665	2154	22.120040508696	0
7665	2821	22.720811712271	0.2
7665	3176	23.120811712271	0.4
7665	4840	24.444117777822	1.2
7665	5745	25.144117777822	0.7
7665	6763	26.051064838403	0.9
7665	6985	26.251470339819	0.4
7665	7100	26.354976361369	0.3
7665	7123	26.359540781132	0
7665	7976	26.959540781132	0.6
7665	8513	27.368863385564	0.4
7665	8790	27.567521868146	0.4
7665	9369	27.976153338334	0.6
7665	9503	28.077076719529	0.5
7665	9727	28.277333970315	0.3
7665	9760	28.28223694335	0
7665	10608	28.984369017984	0.1
7665	11185	29.384369017984	0.4
7665	12230	30.084569017984	0.7
7665	12674	30.484569017984	0.4
7665	13247	30.98743363008	0.5
7665	14326	31.994792804008	1
7665	15108	32.634070385269	0.3
7665	15438	32.932266044189	0.9
7665	16960	34.335494723925	1.4
7665	17282	34.635494723925	0.3
7665	17774	35.0437676014	0.4
7665	18596	35.75188299477	0.7
7665	18776	35.856963225145	0.1
7665	19324	36.345811651715	0.5
7665	20296	37.251644265062	0.9
7665	20721	37.651644265062	0.4
7665	21680	38.561253115274	0.7
7665	22160	38.961276555454	1.3
7665	22166	38.962795577042	0.4
7665	22677	39.365505558137	0.4
7665	22695	39.371209243647	0.4
7665	23330	39.872232695092	0.5
7665	24024	40.372232695092	0.5
7665	24712	40.87336836312	0.5
7665	25140	41.268318882254	0.9
7665	25172	41.27492386576	0.4
7665	25261	41.370850971398	0.7
7665	25651	41.678420515339	0.4
7665	25727	41.768539294857	0.5
7665	25737	41.772320874983	0.5
7665	26056	42.072520874983	0.3
7665	26448	42.372520874983	0.3
7665	26972	42.877100658025	0.5
7665	27560	43.368628199243	0.6
7665	27589	43.384919576157	0.5
7665	29230	44.78756450451	1.4
7665	29813	45.18756450451	0.4
7665	30513	45.792056772408	0.6
7665	31470	46.599534262176	0.8
7665	31710	46.802847773422	0.2
7665	32144	47.10706170663	0.3
7665	32775	47.60706170663	0.5
7665	33214	47.919287158238	0.3
7665	33618	48.225565479568	0.6
7665	34179	48.6250424376	0.7
7665	34353	48.73451579781	0.5
7665	34617	48.944418208659	0.2
7665	35553	49.748217794456	0.8
7665	36072	50.148217794456	0.4
7665	36529	50.548867400021	0.4
7665	36598	50.601293143834	0.4
7665	37211	51.101656999384	0.5
7665	37280	51.158178861329	0.6
7665	37957	51.763486561911	0.6
7665	38085	51.904035205644	0.8
7665	38185	51.977969272695	0.2
7665	38250	52.060774065368	0.3
7665	38921	52.669263767411	0.6
7665	39674	53.269263767411	0.6
7665	40601	54.109256503681	0.8
7665	41145	54.617186304173	0.5
7665	41393	54.822184527046	0.2
7665	42395	55.622184527046	0.8
7665	42777	55.931574105217	0.3
7665	43089	56.239791477312	0.3
7665	43191	56.303464470612	0.3
7665	43429	56.510833524609	0.2
7665	43573	56.61794009188	0.1
7665	44319	57.286359563959	0.4
7665	45449	58.186559563959	0.9
7665	45900	58.486559563959	0.3
7665	46548	58.994023486871	0.5
7665	46922	59.303760354463	0.3
7665	47148	59.534850966974	0.4
7665	47184	59.604348591405	0.3
7665	47392	59.806148321465	0.2
7665	47408	59.808995372631	0
7665	47834	60.152579935513	0.2
7665	48434	60.622289648846	0.3
7665	48805	60.922289648846	0.3
7665	49479	61.530485007442	0.6
7665	49564	61.629722521615	0.5
7665	51089	62.929922521615	1.3
7665	51217	63.029922521615	0.1
7665	52059	63.83196370457	0.8
7665	52303	64.04174238853	0.2
7665	52498	64.24174238853	0.2
7665	52770	64.451605425251	0.2
7665	53381	64.961132120492	0.5
7665	53920	65.369315190738	0.4
7665	54603	65.899844689366	0.3
7665	54896	66.152413393306	1
7665	55053	66.303526689677	0.4
7665	56552	67.40481337658	1.1
7665	56760	67.60481337658	0.2
7665	58283	69.00907049578	1.4
7665	59248	69.910818488542	0.9
7665	59302	69.981587190749	0.9
7665	59635	70.38971004426	0.4
7665	60152	70.997341140266	0.6
7665	60181	71.018192585774	1.1
7665	60259	71.098591073814	0.3
7665	60835	71.613625342286	0.5
7665	61094	71.821026518298	0.8
7665	61179	71.897772342308	0.9
7665	61409	72.045374482012	0.2
7665	61877	72.445574482012	0.4
7665	62412	72.945574482012	0.5
7665	63540	73.950650490588	1
7665	64270	74.559585843279	0.6
7665	64726	74.959618544652	0.4
7665	65590	75.760396247907	0.8
7665	65742	75.869247179276	0.1
7665	67040	76.88245551453	0.6
7665	67538	77.28245551453	0.4
7665	68092	77.783840376083	0.5
7665	68139	77.850763558489	0.5
7665	68288	77.997972622597	0.2
7665	68622	78.307210123084	0.3
7665	68870	78.507210123084	0.2
7665	69260	78.815462185481	0.3
7665	69489	79.021916303465	0.2
7665	69990	79.423510615919	0.4
7665	70063	79.473929986686	0.4
7665	70099	79.478443245852	0
7665	70310	79.678443245852	0.2
7665	71146	80.379848768235	0.2
7665	71609	80.88356524509	0.5
7665	72088	81.395219399113	0.5
7665	73603	82.695419399113	1.3
7665	74603	83.502399026908	0.8
7665	74821	83.709222037426	0.2
7665	75181	84.011242002229	0.3
7665	75559	84.319584362915	0.3
7665	75881	84.619584362915	0.3
7665	76779	85.33042410383	0.7
7665	77284	85.737473753781	0.4
7665	77311	85.797284115098	0.3
7665	77635	86.043186636995	0.3
7665	77890	86.26300232875	0.2
7665	78047	86.397737396779	0.6
7665	78826	87.104716075756	0.7
7665	79640	87.904716075756	0.8
7665	80262	88.340579226115	0.2
7665	80503	88.541457103742	0.2
7665	80529	88.557705176844	0.2
7665	80949	88.910765316238	1
7665	81225	89.146786467579	0.6
7665	81349	89.266443601035	0.7
7665	81566	89.519808245127	0.6
7665	81619	89.550384263765	0.4
7665	82223	90.052020021891	0.5
7665	82649	90.352020021891	0.3
7665	82977	90.655863156215	0.3
7665	83419	90.962150980968	0.3
7665	83841	91.269858052993	0.3
7665	84377	91.769858052993	0.5
7665	85453	92.629349912112	0.8
7665	86444	93.529349912112	0.9
7665	87108	94.129549912112	0.6
7665	87293	94.329549912112	0.2