version 2
run Stability-34-20130526-18:49:27-1898
attr configname Stability
attr datetime 20130526-18:49:27
attr experiment Stability
attr inifile omnetpp.ini
attr iterationvars $0=1e3
attr iterationvars2 "$0=1e3, $repetition=4"
attr measurement $0=1e3
attr network Network
attr processid 1898
attr repetition 4
attr replication #4
attr resultdir results
attr runnumber 34
attr seedset 34

vector 3394  Network.churner  inGoingSizeSig:vector  ETV
vector 3298  Network.dyn_peer[0]  lookupHopsSig:vector  ETV
vector 3299  Network.dyn_peer[0]  lookupStabilitySig:vector  ETV
vector 3300  Network.dyn_peer[0]  lookupTimeSig:vector  ETV
vector 3301  Network.dyn_peer[1]  lookupHopsSig:vector  ETV
vector 3302  Network.dyn_peer[1]  lookupStabilitySig:vector  ETV
vector 3303  Network.dyn_peer[1]  lookupTimeSig:vector  ETV
vector 3304  Network.dyn_peer[2]  lookupHopsSig:vector  ETV
vector 3305  Network.dyn_peer[2]  lookupStabilitySig:vector  ETV
vector 3306  Network.dyn_peer[2]  lookupTimeSig:vector  ETV
vector 3307  Network.dyn_peer[3]  lookupHopsSig:vector  ETV
vector 3308  Network.dyn_peer[3]  lookupStabilitySig:vector  ETV
vector 3309  Network.dyn_peer[3]  lookupTimeSig:vector  ETV
vector 3310  Network.dyn_peer[4]  lookupHopsSig:vector  ETV
vector 3311  Network.dyn_peer[4]  lookupStabilitySig:vector  ETV
vector 3312  Network.dyn_peer[4]  lookupTimeSig:vector  ETV
vector 3313  Network.dyn_peer[5]  lookupHopsSig:vector  ETV
vector 3314  Network.dyn_peer[5]  lookupStabilitySig:vector  ETV
vector 3315  Network.dyn_peer[5]  lookupTimeSig:vector  ETV
vector 3316  Network.dyn_peer[6]  lookupHopsSig:vector  ETV
vector 3317  Network.dyn_peer[6]  lookupStabilitySig:vector  ETV
vector 3318  Network.dyn_peer[6]  lookupTimeSig:vector  ETV
vector 3319  Network.dyn_peer[7]  lookupHopsSig:vector  ETV
vector 3320  Network.dyn_peer[7]  lookupStabilitySig:vector  ETV
vector 3321  Network.dyn_peer[7]  lookupTimeSig:vector  ETV
vector 3322  Network.dyn_peer[8]  lookupHopsSig:vector  ETV
vector 3323  Network.dyn_peer[8]  lookupStabilitySig:vector  ETV
vector 3324  Network.dyn_peer[8]  lookupTimeSig:vector  ETV
vector 3325  Network.dyn_peer[9]  lookupHopsSig:vector  ETV
vector 3326  Network.dyn_peer[9]  lookupStabilitySig:vector  ETV
vector 3327  Network.dyn_peer[9]  lookupTimeSig:vector  ETV
vector 3328  Network.dyn_peer[10]  lookupHopsSig:vector  ETV
vector 3329  Network.dyn_peer[10]  lookupStabilitySig:vector  ETV
vector 3330  Network.dyn_peer[10]  lookupTimeSig:vector  ETV
vector 3331  Network.dyn_peer[11]  lookupHopsSig:vector  ETV
vector 3332  Network.dyn_peer[11]  lookupStabilitySig:vector  ETV
vector 3333  Network.dyn_peer[11]  lookupTimeSig:vector  ETV
vector 3334  Network.dyn_peer[12]  lookupHopsSig:vector  ETV
vector 3335  Network.dyn_peer[12]  lookupStabilitySig:vector  ETV
vector 3336  Network.dyn_peer[12]  lookupTimeSig:vector  ETV
vector 3337  Network.dyn_peer[13]  lookupHopsSig:vector  ETV
vector 3338  Network.dyn_peer[13]  lookupStabilitySig:vector  ETV
vector 3339  Network.dyn_peer[13]  lookupTimeSig:vector  ETV
vector 3340  Network.dyn_peer[14]  lookupHopsSig:vector  ETV
vector 3341  Network.dyn_peer[14]  lookupStabilitySig:vector  ETV
vector 3342  Network.dyn_peer[14]  lookupTimeSig:vector  ETV
vector 3343  Network.dyn_peer[15]  lookupHopsSig:vector  ETV
vector 3344  Network.dyn_peer[15]  lookupStabilitySig:vector  ETV
vector 3345  Network.dyn_peer[15]  lookupTimeSig:vector  ETV
vector 3346  Network.dyn_peer[16]  lookupHopsSig:vector  ETV
vector 3347  Network.dyn_peer[16]  lookupStabilitySig:vector  ETV
vector 3348  Network.dyn_peer[16]  lookupTimeSig:vector  ETV
vector 3349  Network.dyn_peer[17]  lookupHopsSig:vector  ETV
vector 3350  Network.dyn_peer[17]  lookupStabilitySig:vector  ETV
vector 3351  Network.dyn_peer[17]  lookupTimeSig:vector  ETV
vector 3352  Network.dyn_peer[18]  lookupHopsSig:vector  ETV
vector 3353  Network.dyn_peer[18]  lookupStabilitySig:vector  ETV
vector 3354  Network.dyn_peer[18]  lookupTimeSig:vector  ETV
vector 3355  Network.dyn_peer[19]  lookupHopsSig:vector  ETV
vector 3356  Network.dyn_peer[19]  lookupStabilitySig:vector  ETV
vector 3357  Network.dyn_peer[19]  lookupTimeSig:vector  ETV
vector 3358  Network.dyn_peer[20]  lookupHopsSig:vector  ETV
vector 3359  Network.dyn_peer[20]  lookupStabilitySig:vector  ETV
vector 3360  Network.dyn_peer[20]  lookupTimeSig:vector  ETV
vector 3361  Network.dyn_peer[21]  lookupHopsSig:vector  ETV
vector 3362  Network.dyn_peer[21]  lookupStabilitySig:vector  ETV
vector 3363  Network.dyn_peer[21]  lookupTimeSig:vector  ETV
vector 3364  Network.dyn_peer[22]  lookupHopsSig:vector  ETV
vector 3365  Network.dyn_peer[22]  lookupStabilitySig:vector  ETV
vector 3366  Network.dyn_peer[22]  lookupTimeSig:vector  ETV
vector 3367  Network.dyn_peer[23]  lookupHopsSig:vector  ETV
vector 3368  Network.dyn_peer[23]  lookupStabilitySig:vector  ETV
vector 3369  Network.dyn_peer[23]  lookupTimeSig:vector  ETV
vector 3370  Network.dyn_peer[24]  lookupHopsSig:vector  ETV
vector 3371  Network.dyn_peer[24]  lookupStabilitySig:vector  ETV
vector 3372  Network.dyn_peer[24]  lookupTimeSig:vector  ETV
vector 3373  Network.dyn_peer[25]  lookupHopsSig:vector  ETV
vector 3374  Network.dyn_peer[25]  lookupStabilitySig:vector  ETV
vector 3375  Network.dyn_peer[25]  lookupTimeSig:vector  ETV
vector 3376  Network.dyn_peer[26]  lookupHopsSig:vector  ETV
vector 3377  Network.dyn_peer[26]  lookupStabilitySig:vector  ETV
vector 3378  Network.dyn_peer[26]  lookupTimeSig:vector  ETV
vector 3379  Network.dyn_peer[27]  lookupHopsSig:vector  ETV
vector 3380  Network.dyn_peer[27]  lookupStabilitySig:vector  ETV
vector 3381  Network.dyn_peer[27]  lookupTimeSig:vector  ETV
vector 3382  Network.dyn_peer[28]  lookupHopsSig:vector  ETV
vector 3383  Network.dyn_peer[28]  lookupStabilitySig:vector  ETV
vector 3384  Network.dyn_peer[28]  lookupTimeSig:vector  ETV
vector 3385  Network.dyn_peer[29]  lookupHopsSig:vector  ETV
vector 3386  Network.dyn_peer[29]  lookupStabilitySig:vector  ETV
vector 3387  Network.dyn_peer[29]  lookupTimeSig:vector  ETV
vector 3388  Network.dyn_peer[30]  lookupHopsSig:vector  ETV
vector 3389  Network.dyn_peer[30]  lookupStabilitySig:vector  ETV
vector 3390  Network.dyn_peer[30]  lookupTimeSig:vector  ETV
vector 3391  Network.dyn_peer[31]  lookupHopsSig:vector  ETV
vector 3392  Network.dyn_peer[31]  lookupStabilitySig:vector  ETV
vector 3393  Network.dyn_peer[31]  lookupTimeSig:vector  ETV
3298	33	21.2	2
3298	36	21.4	1
3298	40	21.604441474839	1
3298	45	21.811988025195	1
3298	1057	53.1	1
3298	1060	53.3	1
3298	1065	53.602464238032	2
3298	1070	53.805585980661	1
3298	2103	85.1	1
3298	2108	85.409657681151	2
3298	2112	85.613795631918	1
3298	2117	85.914137844658	2
3298	3145	117.2	2
3298	3149	117.5	2
3298	3153	117.703954831708	1
3298	3162	118.016675607132	2
3298	4154	149.2	2
3298	4157	149.4	1
3298	4161	149.604584550941	1
3298	4165	149.813349261434	1
3298	5196	181.2	2
3298	5200	181.5	2
3298	5204	181.703465885443	1
3298	5211	181.921176781158	1
3298	6259	213.1	1
3298	6263	213.307875064038	1
3298	6267	213.509033331046	1
3298	6273	213.73422660045	1
3298	7266	245.2	2
3298	7269	245.4	1
3298	7274	245.700406163523	2
3298	7282	246.004413358224	2
3298	8271	277.2	2
3298	8274	277.4	1
3298	8279	277.707778073872	2
3298	8288	277.93802887651	1
3298	9284	309	0
3298	9299	309.3	2
3298	9305	309.514824124781	1
3298	9309	309.721857319196	1
3298	10347	341.1	1
3298	10351	341.4	2
3298	10356	341.702237010914	2
3298	10361	341.910785547134	1
3298	11347	373	0
3298	11350	373.2	1
3298	11356	373.513151089317	2
3298	11360	373.717865619776	1
3298	12404	405.1	1
3298	12407	405.3	1
3298	12417	405.634475875381	2
3298	12426	405.866609692114	1
3298	13487	437.1	1
3298	13490	437.3	1
3298	13503	437.561571803848	1
3298	13509	437.772716132041	1
3298	14531	469.2	2
3298	14535	469.5	2
3298	14541	469.710953455055	1
3298	14546	469.923946373415	1
3298	15562	501.2	2
3298	15565	501.4	1
3298	15573	501.719219541785	2
3298	15582	502.029370127552	2
3298	16596	533	0
3298	16599	533.2	1
3298	16607	533.52800411178	2
3298	16611	533.736115902815	1
3298	17634	565.1	1
3298	17638	565.4	2
3298	17644	565.611293062073	1
3298	17649	565.91575110887	2
3298	18666	597	0
3298	18669	597.2	1
3298	18676	597.510033541146	2
3298	18681	597.816512668108	2
3298	19700	629	0
3298	19703	629.2	1
3298	19708	629.504130987082	2
3298	19712	629.708316679233	1
3298	20747	661.1	1
3298	20751	661.4	2
3298	20755	661.60006084691	1
3298	20762	661.819266030321	1
3298	21800	693.1	1
3298	21803	693.3	1
3298	21809	693.50897945152	1
3298	21817	693.821348723726	2
3298	22848	725.2	2
3298	22852	725.408810527331	1
3298	22858	725.718569166682	2
3298	22862	725.927820218108	1
3298	23864	757	0
3298	23868	757.3	2
3298	23872	757.504375588402	1
3298	23887	757.757259392198	1
3298	24887	789.1	1
3298	24892	789.406634294192	2
3298	24900	789.626516434875	1
3298	24904	789.835244879551	1
3298	25905	821.1	1
3298	25909	821.4	2
3298	25913	821.608702050438	1
3298	25921	821.925401230406	2
3298	26954	853	0
3298	26958	853.3	2
3298	26964	853.603191680227	2
3298	26968	853.808470238995	1
3298	28007	885.2	2
3298	28011	885.5	2
3298	28016	885.806911384398	2
3298	28023	886.012047136986	1
3298	29039	917.2	2
3298	29042	917.4	1
3298	29046	917.601459495807	1
3298	29053	917.917761405125	2
3298	30046	949.1	1
3298	30050	949.4	2
3298	30057	949.716696595551	2
3298	30062	949.918540921833	1
3298	31056	981.1	1
3298	31059	981.3	1
3298	31063	981.506005438193	1
3298	31070	981.713857271894	1
3298	32110	1013.2	2
3298	32117	1013.420180754277	1
3298	32124	1013.653710597862	1
3298	32128	1013.857330732335	1
3298	33136	1045.1	1
3298	33140	1045.4	2
3298	33148	1045.723315208263	2
3298	33152	1045.931109434107	1
3298	34175	1077	0
3298	34179	1077.3	2
3298	34184	1077.60019594589	2
3298	34188	1077.804697496155	1
3298	35221	1109.2	2
3298	35225	1109.5	2
3298	35230	1109.709475619366	1
3298	35237	1109.924268563981	1
3298	36280	1141.1	1
3298	36284	1141.301305739751	1
3298	36290	1141.520205923084	1
3298	36295	1141.827437033297	2
3298	37326	1173.2	2
3298	37330	1173.5	2
3298	37335	1173.801607082711	2
3298	37342	1174.009779674873	1
3298	38359	1205.1	1
3298	38362	1205.3	1
3298	38367	1205.601703573314	2
3298	38371	1205.809713107361	1
3298	39410	1237.1	1
3298	39413	1237.3	1
3298	39417	1237.505177324505	1
3298	39422	1237.719489974518	1
3298	40450	1269.2	2
3298	40454	1269.5	2
3298	40458	1269.704640431974	1
3298	40462	1269.90707719671	1
3298	41509	1301.1	1
3298	41513	1301.4	2
3298	41523	1301.730739316712	2
3298	41527	1301.938705010532	1
3298	42570	1333.1	1
3298	42573	1333.3	1
3298	42579	1333.610470236443	2
3298	42583	1333.819323688162	1
3298	43608	1365.2	2
3298	43611	1365.4	1
3298	43617	1365.622246567862	1
3298	43622	1365.82735484859	1
3298	44637	1397.1	1
3298	44641	1397.308301736048	1
3298	44645	1397.512948408084	1
3298	44653	1397.827468645842	2
3298	45659	1429.2	2
3298	45664	1429.408377433209	1
3298	45670	1429.623083052589	1
3298	45676	1429.838751305491	1
3298	46718	1461.1	1
3298	46721	1461.3	1
3298	46726	1461.605955137247	2
3298	46732	1461.913400341935	2
3298	47778	1493.1	1
3298	47783	1493.31067173151	1
3298	47791	1493.632438928342	2
3298	47795	1493.834499181477	1
3298	48823	1525	0
3298	48828	1525.305924307038	2
3298	48833	1525.521919092467	1
3298	48837	1525.726904219692	1
3298	49860	1557.1	1
3298	49863	1557.3	1
3298	49868	1557.60823076477	2
3298	49872	1557.81632886121	1
3298	50891	1589	0
3298	50894	1589.2	1
3298	50899	1589.506149818692	2
3298	50903	1589.70935569144	1
3298	51912	1621.2	2
3298	51916	1621.5	2
3298	51923	1621.80685146977	2
3298	51943	1622.133581574209	2
3298	52948	1653.1	1
3298	52951	1653.3	1
3298	52955	1653.500976362563	1
3298	52959	1653.704610930254	1
3298	54014	1685.1	1
3298	54018	1685.307268880621	1
3298	54023	1685.614741064742	2
3298	54027	1685.816955515247	1
3298	55042	1717.1	1
3298	55046	1717.306789494364	1
3298	55050	1717.507812580347	1
3298	55061	1717.745637909712	1
3298	56056	1749	0
3298	56060	1749.3	2
3298	56066	1749.604144204558	2
3298	56081	1749.857673918827	1
3298	57083	1781.2	2
3298	57089	1781.510308017155	2
3298	57097	1781.83017363938	2
3298	57109	1782.033651615862	1
3298	58115	1813.1	1
3298	58119	1813.4	2
3298	58130	1813.637868858277	1
3298	58136	1813.94543404267	2
3298	59171	1845.1	1
3298	59174	1845.3	1
3298	59181	1845.61000584735	2
3298	59186	1845.813526259638	1
3298	60194	1877.2	2
3298	60197	1877.4	1
3298	60201	1877.606580480884	1
3298	60207	1877.816389730664	1
3298	61234	1909.1	1
3298	61237	1909.3	1
3298	61243	1909.616600365016	2
3298	61247	1909.824626159145	1
3298	62263	1941.2	2
3298	62266	1941.4	1
3298	62273	1941.618055664562	1
3298	62282	1941.953273771823	2
3298	63299	1973.2	2
3298	63302	1973.4	1
3298	63306	1973.607040196207	1
3298	63310	1973.813041933485	1
3298	64288	2005	0
3298	64303	2005.3	2
3298	64311	2005.618566355791	2
3298	64321	2005.840037664211	1
3298	65352	2037.2	2
3298	65355	2037.4	1
3298	65359	2037.607183589206	1
3298	65365	2037.820684896946	1
3299	33	21.2	0.75
3299	36	21.4	0.875
3299	40	21.604441474839	0.875
3299	45	21.811988025195	0.875
3299	1057	53.1	0.875
3299	1060	53.3	0.875
3299	1065	53.602464238032	0.75
3299	1070	53.805585980661	0.875
3299	2103	85.1	0.875
3299	2108	85.409657681151	0.75
3299	2112	85.613795631918	0.875
3299	2117	85.914137844658	0.75
3299	3145	117.2	0.75
3299	3149	117.5	0.75
3299	3153	117.703954831708	0.875
3299	3162	118.016675607132	0.75
3299	4154	149.2	0.75
3299	4157	149.4	0.875
3299	4161	149.604584550941	0.875
3299	4165	149.813349261434	0.875
3299	5196	181.2	0.75
3299	5200	181.5	0.75
3299	5204	181.703465885443	0.875
3299	5211	181.921176781158	0.875
3299	6259	213.1	0.875
3299	6263	213.307875064038	0.875
3299	6267	213.509033331046	0.875
3299	6273	213.73422660045	0.875
3299	7266	245.2	0.75
3299	7269	245.4	0.875
3299	7274	245.700406163523	0.75
3299	7282	246.004413358224	0.75
3299	8271	277.2	0.75
3299	8274	277.4	0.875
3299	8279	277.707778073872	0.75
3299	8288	277.93802887651	0.875
3299	9284	309	1
3299	9299	309.3	0.75
3299	9305	309.514824124781	0.875
3299	9309	309.721857319196	0.875
3299	10347	341.1	0.875
3299	10351	341.4	0.75
3299	10356	341.702237010914	0.75
3299	10361	341.910785547134	0.875
3299	11347	373	1
3299	11350	373.2	0.875
3299	11356	373.513151089317	0.75
3299	11360	373.717865619776	0.875
3299	12404	405.1	0.875
3299	12407	405.3	0.875
3299	12417	405.634475875381	0.75
3299	12426	405.866609692114	0.875
3299	13487	437.1	0.875
3299	13490	437.3	0.875
3299	13503	437.561571803848	0.875
3299	13509	437.772716132041	0.875
3299	14531	469.2	0.75
3299	14535	469.5	0.75
3299	14541	469.710953455055	0.875
3299	14546	469.923946373415	0.875
3299	15562	501.2	0.75
3299	15565	501.4	0.875
3299	15573	501.719219541785	0.75
3299	15582	502.029370127552	0.75
3299	16596	533	1
3299	16599	533.2	0.875
3299	16607	533.52800411178	0.75
3299	16611	533.736115902815	0.875
3299	17634	565.1	0.875
3299	17638	565.4	0.75
3299	17644	565.611293062073	0.875
3299	17649	565.91575110887	0.75
3299	18666	597	1
3299	18669	597.2	0.875
3299	18676	597.510033541146	0.75
3299	18681	597.816512668108	0.75
3299	19700	629	1
3299	19703	629.2	0.875
3299	19708	629.504130987082	0.75
3299	19712	629.708316679233	0.875
3299	20747	661.1	0.875
3299	20751	661.4	0.75
3299	20755	661.60006084691	0.875
3299	20762	661.819266030321	0.875
3299	21800	693.1	0.875
3299	21803	693.3	0.875
3299	21809	693.50897945152	0.875
3299	21817	693.821348723726	0.75
3299	22848	725.2	0.75
3299	22852	725.408810527331	0.875
3299	22858	725.718569166682	0.75
3299	22862	725.927820218108	0.875
3299	23864	757	1
3299	23868	757.3	0.75
3299	23872	757.504375588402	0.875
3299	23887	757.757259392198	0.875
3299	24887	789.1	0.875
3299	24892	789.406634294192	0.75
3299	24900	789.626516434875	0.875
3299	24904	789.835244879551	0.875
3299	25905	821.1	0.875
3299	25909	821.4	0.75
3299	25913	821.608702050438	0.875
3299	25921	821.925401230406	0.75
3299	26954	853	1
3299	26958	853.3	0.75
3299	26964	853.603191680227	0.75
3299	26968	853.808470238995	0.875
3299	28007	885.2	0.75
3299	28011	885.5	0.75
3299	28016	885.806911384398	0.75
3299	28023	886.012047136986	0.875
3299	29039	917.2	0.75
3299	29042	917.4	0.875
3299	29046	917.601459495807	0.875
3299	29053	917.917761405125	0.75
3299	30046	949.1	0.875
3299	30050	949.4	0.75
3299	30057	949.716696595551	0.75
3299	30062	949.918540921833	0.875
3299	31056	981.1	0.875
3299	31059	981.3	0.875
3299	31063	981.506005438193	0.875
3299	31070	981.713857271894	0.875
3299	32110	1013.2	0.75
3299	32117	1013.420180754277	0.875
3299	32124	1013.653710597862	0.875
3299	32128	1013.857330732335	0.875
3299	33136	1045.1	0.875
3299	33140	1045.4	0.75
3299	33148	1045.723315208263	0.75
3299	33152	1045.931109434107	0.875
3299	34175	1077	1
3299	34179	1077.3	0.75
3299	34184	1077.60019594589	0.75
3299	34188	1077.804697496155	0.875
3299	35221	1109.2	0.75
3299	35225	1109.5	0.75
3299	35230	1109.709475619366	0.875
3299	35237	1109.924268563981	0.875
3299	36280	1141.1	0.875
3299	36284	1141.301305739751	0.875
3299	36290	1141.520205923084	0.875
3299	36295	1141.827437033297	0.75
3299	37326	1173.2	0.75
3299	37330	1173.5	0.75
3299	37335	1173.801607082711	0.75
3299	37342	1174.009779674873	0.875
3299	38359	1205.1	0.875
3299	38362	1205.3	0.875
3299	38367	1205.601703573314	0.75
3299	38371	1205.809713107361	0.875
3299	39410	1237.1	0.875
3299	39413	1237.3	0.875
3299	39417	1237.505177324505	0.875
3299	39422	1237.719489974518	0.875
3299	40450	1269.2	0.75
3299	40454	1269.5	0.75
3299	40458	1269.704640431974	0.875
3299	40462	1269.90707719671	0.875
3299	41509	1301.1	0.875
3299	41513	1301.4	0.75
3299	41523	1301.730739316712	0.75
3299	41527	1301.938705010532	0.875
3299	42570	1333.1	0.875
3299	42573	1333.3	0.875
3299	42579	1333.610470236443	0.75
3299	42583	1333.819323688162	0.875
3299	43608	1365.2	0.75
3299	43611	1365.4	0.875
3299	43617	1365.622246567862	0.875
3299	43622	1365.82735484859	0.875
3299	44637	1397.1	0.875
3299	44641	1397.308301736048	0.875
3299	44645	1397.512948408084	0.875
3299	44653	1397.827468645842	0.75
3299	45659	1429.2	0.75
3299	45664	1429.408377433209	0.875
3299	45670	1429.623083052589	0.875
3299	45676	1429.838751305491	0.875
3299	46718	1461.1	0.875
3299	46721	1461.3	0.875
3299	46726	1461.605955137247	0.75
3299	46732	1461.913400341935	0.75
3299	47778	1493.1	0.875
3299	47783	1493.31067173151	0.875
3299	47791	1493.632438928342	0.75
3299	47795	1493.834499181477	0.875
3299	48823	1525	1
3299	48828	1525.305924307038	0.75
3299	48833	1525.521919092467	0.875
3299	48837	1525.726904219692	0.875
3299	49860	1557.1	0.875
3299	49863	1557.3	0.875
3299	49868	1557.60823076477	0.75
3299	49872	1557.81632886121	0.875
3299	50891	1589	1
3299	50894	1589.2	0.875
3299	50899	1589.506149818692	0.75
3299	50903	1589.70935569144	0.875
3299	51912	1621.2	0.75
3299	51916	1621.5	0.75
3299	51923	1621.80685146977	0.75
3299	51943	1622.133581574209	0.75
3299	52948	1653.1	0.875
3299	52951	1653.3	0.875
3299	52955	1653.500976362563	0.875
3299	52959	1653.704610930254	0.875
3299	54014	1685.1	0.875
3299	54018	1685.307268880621	0.875
3299	54023	1685.614741064742	0.75
3299	54027	1685.816955515247	0.875
3299	55042	1717.1	0.875
3299	55046	1717.306789494364	0.875
3299	55050	1717.507812580347	0.875
3299	55061	1717.745637909712	0.875
3299	56056	1749	1
3299	56060	1749.3	0.75
3299	56066	1749.604144204558	0.75
3299	56081	1749.857673918827	0.875
3299	57083	1781.2	0.75
3299	57089	1781.510308017155	0.75
3299	57097	1781.83017363938	0.75
3299	57109	1782.033651615862	0.875
3299	58115	1813.1	0.875
3299	58119	1813.4	0.75
3299	58130	1813.637868858277	0.875
3299	58136	1813.94543404267	0.75
3299	59171	1845.1	0.875
3299	59174	1845.3	0.875
3299	59181	1845.61000584735	0.75
3299	59186	1845.813526259638	0.875
3299	60194	1877.2	0.75
3299	60197	1877.4	0.875
3299	60201	1877.606580480884	0.875
3299	60207	1877.816389730664	0.875
3299	61234	1909.1	0.875
3299	61237	1909.3	0.875
3299	61243	1909.616600365016	0.75
3299	61247	1909.824626159145	0.875
3299	62263	1941.2	0.75
3299	62266	1941.4	0.875
3299	62273	1941.618055664562	0.875
3299	62282	1941.953273771823	0.75
3299	63299	1973.2	0.75
3299	63302	1973.4	0.875
3299	63306	1973.607040196207	0.875
3299	63310	1973.813041933485	0.875
3299	64288	2005	1
3299	64303	2005.3	0.75
3299	64311	2005.618566355791	0.75
3299	64321	2005.840037664211	0.875
3299	65352	2037.2	0.75
3299	65355	2037.4	0.875
3299	65359	2037.607183589206	0.875
3299	65365	2037.820684896946	0.875
3300	33	21.2	0.2
3300	36	21.4	0.2
3300	40	21.604441474839	0.2
3300	45	21.811988025195	0.2
3300	1057	53.1	0.1
3300	1060	53.3	0.2
3300	1065	53.602464238032	0.3
3300	1070	53.805585980661	0.2
3300	2103	85.1	0.1
3300	2108	85.409657681151	0.3
3300	2112	85.613795631918	0.2
3300	2117	85.914137844658	0.3
3300	3145	117.2	0.2
3300	3149	117.5	0.3
3300	3153	117.703954831708	0.2
3300	3162	118.016675607132	0.3
3300	4154	149.2	0.2
3300	4157	149.4	0.2
3300	4161	149.604584550941	0.2
3300	4165	149.813349261434	0.2
3300	5196	181.2	0.2
3300	5200	181.5	0.3
3300	5204	181.703465885443	0.2
3300	5211	181.921176781158	0.2
3300	6259	213.1	0.1
3300	6263	213.307875064038	0.2
3300	6267	213.509033331046	0.2
3300	6273	213.73422660045	0.2
3300	7266	245.2	0.2
3300	7269	245.4	0.2
3300	7274	245.700406163523	0.3
3300	7282	246.004413358224	0.3
3300	8271	277.2	0.2
3300	8274	277.4	0.2
3300	8279	277.707778073872	0.3
3300	8288	277.93802887651	0.2
3300	9284	309	0
3300	9299	309.3	0.3
3300	9305	309.514824124781	0.2
3300	9309	309.721857319196	0.2
3300	10347	341.1	0.1
3300	10351	341.4	0.3
3300	10356	341.702237010914	0.3
3300	10361	341.910785547134	0.2
3300	11347	373	0
3300	11350	373.2	0.2
3300	11356	373.513151089317	0.3
3300	11360	373.717865619776	0.2
3300	12404	405.1	0.1
3300	12407	405.3	0.2
3300	12417	405.634475875381	0.3
3300	12426	405.866609692114	0.2
3300	13487	437.1	0.1
3300	13490	437.3	0.2
3300	13503	437.561571803848	0.2
3300	13509	437.772716132041	0.2
3300	14531	469.2	0.2
3300	14535	469.5	0.3
3300	14541	469.710953455055	0.2
3300	14546	469.923946373415	0.2
3300	15562	501.2	0.2
3300	15565	501.4	0.2
3300	15573	501.719219541785	0.3
3300	15582	502.029370127552	0.3
3300	16596	533	0
3300	16599	533.2	0.2
3300	16607	533.52800411178	0.3
3300	16611	533.736115902815	0.2
3300	17634	565.1	0.1
3300	17638	565.4	0.3
3300	17644	565.611293062073	0.2
3300	17649	565.91575110887	0.3
3300	18666	597	0
3300	18669	597.2	0.2
3300	18676	597.510033541146	0.3
3300	18681	597.816512668108	0.3
3300	19700	629	0
3300	19703	629.2	0.2
3300	19708	629.504130987082	0.3
3300	19712	629.708316679233	0.2
3300	20747	661.1	0.1
3300	20751	661.4	0.3
3300	20755	661.60006084691	0.2
3300	20762	661.819266030321	0.2
3300	21800	693.1	0.1
3300	21803	693.3	0.2
3300	21809	693.50897945152	0.2
3300	21817	693.821348723726	0.3
3300	22848	725.2	0.2
3300	22852	725.408810527331	0.2
3300	22858	725.718569166682	0.3
3300	22862	725.927820218108	0.2
3300	23864	757	0
3300	23868	757.3	0.3
3300	23872	757.504375588402	0.2
3300	23887	757.757259392198	0.2
3300	24887	789.1	0.1
3300	24892	789.406634294192	0.3
3300	24900	789.626516434875	0.2
3300	24904	789.835244879551	0.2
3300	25905	821.1	0.1
3300	25909	821.4	0.3
3300	25913	821.608702050438	0.2
3300	25921	821.925401230406	0.3
3300	26954	853	0
3300	26958	853.3	0.3
3300	26964	853.603191680227	0.3
3300	26968	853.808470238995	0.2
3300	28007	885.2	0.2
3300	28011	885.5	0.3
3300	28016	885.806911384398	0.3
3300	28023	886.012047136986	0.2
3300	29039	917.2	0.2
3300	29042	917.4	0.2
3300	29046	917.601459495807	0.2
3300	29053	917.917761405125	0.3
3300	30046	949.1	0.1
3300	30050	949.4	0.3
3300	30057	949.716696595551	0.3
3300	30062	949.918540921833	0.2
3300	31056	981.1	0.1
3300	31059	981.3	0.2
3300	31063	981.506005438193	0.2
3300	31070	981.713857271894	0.2
3300	32110	1013.2	0.2
3300	32117	1013.420180754277	0.2
3300	32124	1013.653710597862	0.2
3300	32128	1013.857330732335	0.2
3300	33136	1045.1	0.1
3300	33140	1045.4	0.3
3300	33148	1045.723315208263	0.3
3300	33152	1045.931109434107	0.2
3300	34175	1077	0
3300	34179	1077.3	0.3
3300	34184	1077.60019594589	0.3
3300	34188	1077.804697496155	0.2
3300	35221	1109.2	0.2
3300	35225	1109.5	0.3
3300	35230	1109.709475619366	0.2
3300	35237	1109.924268563981	0.2
3300	36280	1141.1	0.1
3300	36284	1141.301305739751	0.2
3300	36290	1141.520205923084	0.2
3300	36295	1141.827437033297	0.3
3300	37326	1173.2	0.2
3300	37330	1173.5	0.3
3300	37335	1173.801607082711	0.3
3300	37342	1174.009779674873	0.2
3300	38359	1205.1	0.1
3300	38362	1205.3	0.2
3300	38367	1205.601703573314	0.3
3300	38371	1205.809713107361	0.2
3300	39410	1237.1	0.1
3300	39413	1237.3	0.2
3300	39417	1237.505177324505	0.2
3300	39422	1237.719489974518	0.2
3300	40450	1269.2	0.2
3300	40454	1269.5	0.3
3300	40458	1269.704640431974	0.2
3300	40462	1269.90707719671	0.2
3300	41509	1301.1	0.1
3300	41513	1301.4	0.3
3300	41523	1301.730739316712	0.3
3300	41527	1301.938705010532	0.2
3300	42570	1333.1	0.1
3300	42573	1333.3	0.2
3300	42579	1333.610470236443	0.3
3300	42583	1333.819323688162	0.2
3300	43608	1365.2	0.2
3300	43611	1365.4	0.2
3300	43617	1365.622246567862	0.2
3300	43622	1365.82735484859	0.2
3300	44637	1397.1	0.1
3300	44641	1397.308301736048	0.2
3300	44645	1397.512948408084	0.2
3300	44653	1397.827468645842	0.3
3300	45659	1429.2	0.2
3300	45664	1429.408377433209	0.2
3300	45670	1429.623083052589	0.2
3300	45676	1429.838751305491	0.2
3300	46718	1461.1	0.1
3300	46721	1461.3	0.2
3300	46726	1461.605955137247	0.3
3300	46732	1461.913400341935	0.3
3300	47778	1493.1	0.1
3300	47783	1493.31067173151	0.2
3300	47791	1493.632438928342	0.3
3300	47795	1493.834499181477	0.2
3300	48823	1525	0
3300	48828	1525.305924307038	0.3
3300	48833	1525.521919092467	0.2
3300	48837	1525.726904219692	0.2
3300	49860	1557.1	0.1
3300	49863	1557.3	0.2
3300	49868	1557.60823076477	0.3
3300	49872	1557.81632886121	0.2
3300	50891	1589	0
3300	50894	1589.2	0.2
3300	50899	1589.506149818692	0.3
3300	50903	1589.70935569144	0.2
3300	51912	1621.2	0.2
3300	51916	1621.5	0.3
3300	51923	1621.80685146977	0.3
3300	51943	1622.133581574209	0.3
3300	52948	1653.1	0.1
3300	52951	1653.3	0.2
3300	52955	1653.500976362563	0.2
3300	52959	1653.704610930254	0.2
3300	54014	1685.1	0.1
3300	54018	1685.307268880621	0.2
3300	54023	1685.614741064742	0.3
3300	54027	1685.816955515247	0.2
3300	55042	1717.1	0.1
3300	55046	1717.306789494364	0.2
3300	55050	1717.507812580347	0.2
3300	55061	1717.745637909712	0.2
3300	56056	1749	0
3300	56060	1749.3	0.3
3300	56066	1749.604144204558	0.3
3300	56081	1749.857673918827	0.2
3300	57083	1781.2	0.2
3300	57089	1781.510308017155	0.3
3300	57097	1781.83017363938	0.3
3300	57109	1782.033651615862	0.2
3300	58115	1813.1	0.1
3300	58119	1813.4	0.3
3300	58130	1813.637868858277	0.2
3300	58136	1813.94543404267	0.3
3300	59171	1845.1	0.1
3300	59174	1845.3	0.2
3300	59181	1845.61000584735	0.3
3300	59186	1845.813526259638	0.2
3300	60194	1877.2	0.2
3300	60197	1877.4	0.2
3300	60201	1877.606580480884	0.2
3300	60207	1877.816389730664	0.2
3300	61234	1909.1	0.1
3300	61237	1909.3	0.2
3300	61243	1909.616600365016	0.3
3300	61247	1909.824626159145	0.2
3300	62263	1941.2	0.2
3300	62266	1941.4	0.2
3300	62273	1941.618055664562	0.2
3300	62282	1941.953273771823	0.3
3300	63299	1973.2	0.2
3300	63302	1973.4	0.2
3300	63306	1973.607040196207	0.2
3300	63310	1973.813041933485	0.2
3300	64288	2005	0
3300	64303	2005.3	0.3
3300	64311	2005.618566355791	0.3
3300	64321	2005.840037664211	0.2
3300	65352	2037.2	0.2
3300	65355	2037.4	0.2
3300	65359	2037.607183589206	0.2
3300	65365	2037.820684896946	0.2
3301	63	22.2	2
3301	66	22.4	1
3301	70	22.608603688152	1
3301	79	22.852218430064	1
3301	1086	54	0
3301	1093	54.311304873996	2
3301	1101	54.534678811638	1
3301	1106	54.844429606257	2
3301	2134	86.1	1
3301	2137	86.3	1
3301	2141	86.506913938841	1
3301	2146	86.720592484387	1
3301	3176	118.1	1
3301	3179	118.3	1
3301	3183	118.505103231614	1
3301	3189	118.713637716802	1
3301	4183	150.2	2
3301	4187	150.5	2
3301	4193	150.809683618486	2
3301	4201	151.022088679822	1
3301	5229	182.2	2
3301	5232	182.4	1
3301	5237	182.706826699867	2
3301	5245	183.012301247233	2
3301	6290	214.1	1
3301	6294	214.4	2
3301	6298	214.605774069966	1
3301	6303	214.813229559717	1
3301	7296	246.1	1
3301	7301	246.409261646333	2
3301	7305	246.609758055009	1
3301	7309	246.818448556707	1
3301	8304	278	0
3301	8308	278.202690754439	1
3301	8312	278.404425615574	1
3301	8329	278.692138407222	1
3301	9326	310.1	1
3301	9330	310.307194146267	1
3301	9336	310.61928007203	2
3301	9342	310.832214424517	1
3301	10378	342.1	1
3301	10382	342.4	2
3301	10387	342.613990896729	1
3301	10394	342.839893404979	1
3301	11378	374.2	2
3301	11382	374.407226526427	1
3301	11386	374.614657251124	1
3301	11397	374.862309953377	1
3301	12443	406.1	1
3301	12447	406.4	2
3301	12451	406.604009711886	1
3301	12456	406.912529789101	2
3301	13526	438.1	1
3301	13529	438.3	1
3301	13534	438.600437901823	2
3301	13538	438.805579750919	1
3301	14562	470	0
3301	14565	470.2	1
3301	14569	470.40698419383	1
3301	14575	470.619736099721	1
3301	15597	502.2	2
3301	15601	502.408040678482	1
3301	15605	502.608747902006	1
3301	15610	502.825367778619	1
3301	16628	534.1	1
3301	16631	534.3	1
3301	16636	534.517289045578	1
3301	16643	534.732763071413	1
3301	17666	566.1	1
3301	17669	566.3	1
3301	17673	566.506056143294	1
3301	17678	566.716998036076	1
3301	18698	598.1	1
3301	18702	598.4	2
3301	18707	598.703817474006	2
3301	18714	598.925530973701	1
3301	19730	630.2	2
3301	19733	630.4	1
3301	19737	630.602157460586	1
3301	19742	630.805092018161	1
3301	20779	662.1	1
3301	20782	662.3	1
3301	20788	662.601747492867	2
3301	20793	662.90245356367	2
3301	21834	694.1	1
3301	21839	694.405781713775	2
3301	21846	694.723950654676	2
3301	21855	694.950702538724	1
3301	22880	726.2	2
3301	22883	726.4	1
3301	22887	726.601574870441	1
3301	22891	726.80351405685	1
3301	23904	758.1	1
3301	23907	758.3	1
3301	23912	758.606458635465	2
3301	23917	758.810487310229	1
3301	24921	790.1	1
3301	24924	790.3	1
3301	24930	790.509618152453	1
3301	24935	790.719270619947	1
3301	25938	822.1	1
3301	25941	822.3	1
3301	25948	822.612376212759	2
3301	25955	822.830789719515	1
3301	26985	854.1	1
3301	26992	854.418990122358	2
3301	26996	854.62085576963	1
3301	27000	854.826097850593	1
3301	28037	886.1	1
3301	28040	886.3	1
3301	28045	886.603512885777	2
3301	28051	886.824453486127	1
3301	29071	918.2	2
3301	29076	918.5020389225	2
3301	29081	918.713284565604	1