version 2
run Stability-89-20130526-18:53:03-1898
attr configname Stability
attr datetime 20130526-18:53:03
attr experiment Stability
attr inifile omnetpp.ini
attr iterationvars $0=1e-2
attr iterationvars2 "$0=1e-2, $repetition=9"
attr measurement $0=1e-2
attr network Network
attr processid 1898
attr repetition 9
attr replication #9
attr resultdir results
attr runnumber 89
attr seedset 89

vector 8729  Network.churner  inGoingSizeSig:vector  ETV
vector 8720  Network.dyn_peer[29]  lookupHopsSig:vector  ETV
vector 8721  Network.dyn_peer[29]  lookupStabilitySig:vector  ETV
vector 8722  Network.dyn_peer[29]  lookupTimeSig:vector  ETV
vector 8651  Network.dyn_peer[6]  lookupHopsSig:vector  ETV
vector 8652  Network.dyn_peer[6]  lookupStabilitySig:vector  ETV
vector 8653  Network.dyn_peer[6]  lookupTimeSig:vector  ETV
vector 8654  Network.dyn_peer[7]  lookupHopsSig:vector  ETV
vector 8655  Network.dyn_peer[7]  lookupStabilitySig:vector  ETV
vector 8656  Network.dyn_peer[7]  lookupTimeSig:vector  ETV
vector 8657  Network.dyn_peer[8]  lookupHopsSig:vector  ETV
vector 8658  Network.dyn_peer[8]  lookupStabilitySig:vector  ETV
vector 8659  Network.dyn_peer[8]  lookupTimeSig:vector  ETV
vector 8660  Network.dyn_peer[9]  lookupHopsSig:vector  ETV
vector 8661  Network.dyn_peer[9]  lookupStabilitySig:vector  ETV
vector 8662  Network.dyn_peer[9]  lookupTimeSig:vector  ETV
vector 8678  Network.dyn_peer[15]  lookupHopsSig:vector  ETV
vector 8679  Network.dyn_peer[15]  lookupStabilitySig:vector  ETV
vector 8680  Network.dyn_peer[15]  lookupTimeSig:vector  ETV
vector 8684  Network.dyn_peer[17]  lookupHopsSig:vector  ETV
vector 8685  Network.dyn_peer[17]  lookupStabilitySig:vector  ETV
vector 8686  Network.dyn_peer[17]  lookupTimeSig:vector  ETV
vector 8690  Network.dyn_peer[19]  lookupHopsSig:vector  ETV
vector 8691  Network.dyn_peer[19]  lookupStabilitySig:vector  ETV
vector 8692  Network.dyn_peer[19]  lookupTimeSig:vector  ETV
vector 8702  Network.dyn_peer[23]  lookupHopsSig:vector  ETV
vector 8703  Network.dyn_peer[23]  lookupStabilitySig:vector  ETV
vector 8704  Network.dyn_peer[23]  lookupTimeSig:vector  ETV
vector 8714  Network.dyn_peer[27]  lookupHopsSig:vector  ETV
vector 8715  Network.dyn_peer[27]  lookupStabilitySig:vector  ETV
vector 8716  Network.dyn_peer[27]  lookupTimeSig:vector  ETV
vector 8633  Network.dyn_peer[0]  lookupHopsSig:vector  ETV
vector 8634  Network.dyn_peer[0]  lookupStabilitySig:vector  ETV
vector 8635  Network.dyn_peer[0]  lookupTimeSig:vector  ETV
vector 8636  Network.dyn_peer[1]  lookupHopsSig:vector  ETV
vector 8637  Network.dyn_peer[1]  lookupStabilitySig:vector  ETV
vector 8638  Network.dyn_peer[1]  lookupTimeSig:vector  ETV
vector 8663  Network.dyn_peer[10]  lookupHopsSig:vector  ETV
vector 8664  Network.dyn_peer[10]  lookupStabilitySig:vector  ETV
vector 8665  Network.dyn_peer[10]  lookupTimeSig:vector  ETV
vector 8672  Network.dyn_peer[13]  lookupHopsSig:vector  ETV
vector 8673  Network.dyn_peer[13]  lookupStabilitySig:vector  ETV
vector 8674  Network.dyn_peer[13]  lookupTimeSig:vector  ETV
vector 8687  Network.dyn_peer[18]  lookupHopsSig:vector  ETV
vector 8688  Network.dyn_peer[18]  lookupStabilitySig:vector  ETV
vector 8689  Network.dyn_peer[18]  lookupTimeSig:vector  ETV
vector 8696  Network.dyn_peer[21]  lookupHopsSig:vector  ETV
vector 8697  Network.dyn_peer[21]  lookupStabilitySig:vector  ETV
vector 8698  Network.dyn_peer[21]  lookupTimeSig:vector  ETV
vector 8705  Network.dyn_peer[24]  lookupHopsSig:vector  ETV
vector 8706  Network.dyn_peer[24]  lookupStabilitySig:vector  ETV
vector 8707  Network.dyn_peer[24]  lookupTimeSig:vector  ETV
vector 8708  Network.dyn_peer[25]  lookupHopsSig:vector  ETV
vector 8709  Network.dyn_peer[25]  lookupStabilitySig:vector  ETV
vector 8710  Network.dyn_peer[25]  lookupTimeSig:vector  ETV
vector 8711  Network.dyn_peer[26]  lookupHopsSig:vector  ETV
vector 8712  Network.dyn_peer[26]  lookupStabilitySig:vector  ETV
vector 8713  Network.dyn_peer[26]  lookupTimeSig:vector  ETV
vector 8717  Network.dyn_peer[28]  lookupHopsSig:vector  ETV
vector 8718  Network.dyn_peer[28]  lookupStabilitySig:vector  ETV
vector 8719  Network.dyn_peer[28]  lookupTimeSig:vector  ETV
vector 8723  Network.dyn_peer[30]  lookupHopsSig:vector  ETV
vector 8724  Network.dyn_peer[30]  lookupStabilitySig:vector  ETV
vector 8725  Network.dyn_peer[30]  lookupTimeSig:vector  ETV
vector 8726  Network.dyn_peer[31]  lookupHopsSig:vector  ETV
vector 8727  Network.dyn_peer[31]  lookupStabilitySig:vector  ETV
vector 8728  Network.dyn_peer[31]  lookupTimeSig:vector  ETV
vector 8642  Network.dyn_peer[3]  lookupHopsSig:vector  ETV
vector 8643  Network.dyn_peer[3]  lookupStabilitySig:vector  ETV
vector 8644  Network.dyn_peer[3]  lookupTimeSig:vector  ETV
vector 8645  Network.dyn_peer[4]  lookupHopsSig:vector  ETV
vector 8646  Network.dyn_peer[4]  lookupStabilitySig:vector  ETV
vector 8647  Network.dyn_peer[4]  lookupTimeSig:vector  ETV
vector 8648  Network.dyn_peer[5]  lookupHopsSig:vector  ETV
vector 8649  Network.dyn_peer[5]  lookupStabilitySig:vector  ETV
vector 8650  Network.dyn_peer[5]  lookupTimeSig:vector  ETV
vector 8675  Network.dyn_peer[14]  lookupHopsSig:vector  ETV
vector 8676  Network.dyn_peer[14]  lookupStabilitySig:vector  ETV
vector 8677  Network.dyn_peer[14]  lookupTimeSig:vector  ETV
vector 8693  Network.dyn_peer[20]  lookupHopsSig:vector  ETV
vector 8694  Network.dyn_peer[20]  lookupStabilitySig:vector  ETV
vector 8695  Network.dyn_peer[20]  lookupTimeSig:vector  ETV
vector 8639  Network.dyn_peer[2]  lookupHopsSig:vector  ETV
vector 8640  Network.dyn_peer[2]  lookupStabilitySig:vector  ETV
vector 8641  Network.dyn_peer[2]  lookupTimeSig:vector  ETV
vector 8666  Network.dyn_peer[11]  lookupHopsSig:vector  ETV
vector 8667  Network.dyn_peer[11]  lookupStabilitySig:vector  ETV
vector 8668  Network.dyn_peer[11]  lookupTimeSig:vector  ETV
vector 8669  Network.dyn_peer[12]  lookupHopsSig:vector  ETV
vector 8670  Network.dyn_peer[12]  lookupStabilitySig:vector  ETV
vector 8671  Network.dyn_peer[12]  lookupTimeSig:vector  ETV
vector 8699  Network.dyn_peer[22]  lookupHopsSig:vector  ETV
vector 8700  Network.dyn_peer[22]  lookupStabilitySig:vector  ETV
vector 8701  Network.dyn_peer[22]  lookupTimeSig:vector  ETV
vector 8681  Network.dyn_peer[16]  lookupHopsSig:vector  ETV
vector 8682  Network.dyn_peer[16]  lookupStabilitySig:vector  ETV
vector 8683  Network.dyn_peer[16]  lookupTimeSig:vector  ETV
8633	198	20.20001	2
8633	580	20.805766170577	5
8633	1026	21.30853928506	4
8633	1034	21.309333243822	4
8633	1707	21.812121292914	4
8633	1713	21.813146551336	4
8633	1962	22.019531150846	1
8633	1976	22.021856685427	1
8633	2165	22.219838521025	1
8633	2722	22.629168366192	4
8633	3517	23.429168366192	9
8633	3733	23.633113673794	8
8633	4338	24.14226359978	5
8633	4684	24.44226359978	2
8633	4866	24.576980729575	0
8633	5172	24.888127230492	2
8633	5542	25.225696913191	3
8633	5776	25.430494988224	2
8633	6653	26.130494988224	6
8633	7477	26.736250852526	6
8633	7694	26.865809057179	4
8633	7865	27.039700492525	2
8633	7932	27.069760048288	2
8633	7979	27.136063746807	10
8633	8257	27.337374044894	3
8633	8535	27.637374044894	3
8633	8736	27.842292284159	1
8633	9445	28.45423032938	4
8633	9485	28.46803665719	5
8633	10695	29.468220501894	12
8633	11043	29.768220501894	2
8633	11237	29.966391605409	3
8633	11437	30.176549704661	3
8633	11662	30.376659704661	2
8633	11823	30.576659704661	1
8633	12192	30.880453073153	2
8633	12370	30.99942750458	2
8633	12558	31.177953371141	5
8633	12970	31.486957994682	3
8633	14398	32.586957994682	10
8633	14781	32.904474228188	2
8633	15176	33.20861493848	2
8633	15606	33.612072496022	3
8633	15965	33.921685494525	3
8633	16309	34.226180513076	3
8633	16698	34.526180513076	2
8633	17809	35.426290513076	9
8633	18718	36.210735706687	4
8633	18736	36.226290513076	7
8633	19376	36.735756155519	5
8633	19592	36.935756155519	1
8633	20007	37.344036525854	3
8633	20185	37.552301587409	1
8633	20778	38.052411587409	6
8633	21495	38.652411587409	5
8633	22710	39.706403894352	1
8633	22861	39.807099571621	1
8633	23342	40.207099571621	3
8633	23574	40.407304044938	1
8633	24081	40.810277456031	4
8633	24356	41.010277456031	1
8633	24657	41.228977865646	1
8633	25021	41.53660974386	2
8633	25253	41.737238569684	1
8633	25394	41.846543434389	1
8633	25838	42.246543434389	3
8633	26156	42.54942200654	2
8633	26340	42.68288082506	6
8633	27063	43.28299082506	6
8633	27881	43.98299082506	8
8633	28427	44.386181569065	4
8633	29450	45.286181569065	8
8633	29712	45.495613849936	1
8633	30521	46.205392828949	6
8633	30773	46.497883188483	11
8633	31214	46.909078693944	3
8633	31221	46.911956341901	6
8633	31401	47.100060032712	6
8633	31832	47.402220028091	3
8633	32163	47.702220028091	2
8633	32878	48.304604985196	6
8633	33889	49.104714985196	9
8633	34395	49.504714985196	3
8633	34567	49.604824985196	2
8633	35669	50.604824985196	9
8633	35788	50.713741469979	1
8633	35961	50.880580009681	1
8633	36016	50.914874049613	1
8633	36314	51.115049354757	3
8633	36727	51.415049354757	3
8633	37242	51.823928213961	3
8633	37713	52.327618692406	5
8633	37873	52.530093965677	1
8633	38596	53.234863126121	7
8633	38651	53.293113269972	3
8633	38809	53.448451256308	3
8633	38892	53.541018150824	2
8633	39115	53.702720788841	3
8633	39301	53.852795721288	3
8633	39555	54.060373300796	1
8633	39738	54.242441199664	7
8633	40525	54.950497189327	7
8633	41564	55.850497189327	8
8633	42857	56.852099924185	9
8633	43367	57.252209924185	4
8633	43904	57.652209924185	3
8633	44998	58.559121632419	8
8633	45084	58.64168621268	8
8633	45439	58.862268595002	2
8633	45576	58.951070456404	1
8633	45763	59.079883773822	2
8633	46006	59.271607421848	4
8633	46167	59.375977132148	1
8633	47172	60.175977132148	7
8633	47880	60.778599112501	5
8633	49286	61.979588996636	13
8633	50625	63.082263167727	13
8633	51047	63.482263167727	3
8633	51162	63.583337738484	1
8633	51676	63.991793000757	4
8633	51773	64.085100750548	4
8633	52270	64.498078534631	4
8633	52883	65.001558141336	8
8633	53277	65.298815380926	8
8633	53296	65.305923003258	3
8633	53971	65.906067389664	6
8633	54714	66.606067389664	7
8633	55320	67.115617872976	5
8633	55531	67.320323916206	1
8633	55648	67.434078307418	3
8633	56143	67.840217846327	3
8633	56209	67.917992092452	9
8633	56412	68.043049072049	1
8633	56437	68.049437526655	1
8633	56494	68.120889340745	1
8633	56508	68.127783914706	9
8633	56788	68.350309935125	3
8633	56790	68.351480537218	3
8633	57046	68.618993974146	4
8633	57098	68.652877372345	2
8633	57105	68.654474289963	2
8633	57336	68.854584289963	2
8633	57546	69.054584289963	1
8633	58099	69.544103181554	1
8633	58722	70.044103181554	4
8633	59737	70.852773898039	8
8633	59903	70.961967537477	0
8633	60245	71.268895080761	2
8633	61008	71.969005080761	7
8633	62196	72.969005080761	11
8633	62910	73.574172095828	6
8633	63259	73.874172095828	2
8633	64039	74.59104712294	6
8633	64563	75.081685916093	6
8633	64866	75.295793810538	7
8633	65079	75.489516883627	3
8633	65174	75.588563683548	4
8633	65490	75.805013761699	4
8633	65599	75.891895760795	4
8633	65801	76.088972648693	4
8633	67316	77.196065796862	11
8633	68317	77.896065796862	6
8633	68671	78.205087800967	2
8633	69292	78.712515039936	5
8633	69658	79.012515039936	2
8633	70162	79.429901980068	3
8633	70624	79.907417519196	3
8633	70793	80.013401821323	11
8633	70897	80.076693228906	2
8633	71296	80.380398486076	3
8633	72043	80.880398486076	5
8633	72216	81.036821391961	3
8633	72767	81.488760358351	5
8633	72876	81.561095023251	4
8633	73069	81.751890972801	1
8633	73435	82.057881547058	2
8633	73454	82.089861134781	6
8633	73472	82.12168411187	2
8633	73742	82.330226173644	2
8633	75699	83.97435084447	6
8633	75717	84.015116955158	14
8633	75723	84.030226173644	19
8633	76023	84.231410468834	2
8633	76569	84.631410468834	3
8633	77485	85.333599770328	7
8633	77515	85.368419924624	5
8633	77931	85.769083716027	3
8633	78199	85.977810290594	2
8633	79404	87.077810290594	10
8633	79960	87.58707984009	4
8633	80538	88.087497981245	4
8633	80636	88.170412203991	4
8633	80889	88.39257994799	2
8633	80975	88.425830189602	3
8633	81191	88.597554184548	1
8633	81294	88.675627082828	4
8633	81560	88.880795124918	2
8633	81920	89.180795124918	2
8633	83866	90.686154929185	15
8633	84484	91.186154929185	4
8633	85105	91.690218326293	4
8633	85481	91.994682022241	2
8633	85950	92.418278740506	4
8633	86287	92.720949714113	6
8633	86510	92.924455742177	6
8633	86514	92.92493952361	4
8633	87111	93.426870937856	3
8633	87667	93.834572978899	4
8633	88361	94.534572978899	6
8633	88625	94.738451295915	1
8633	88970	95.042271041694	3
8633	89893	95.942271041694	8
8633	90221	96.248429328329	2
8633	90439	96.453469914191	1
8633	90470	96.464922760156	7
8633	91073	96.971900757234	5
8633	91496	97.271900757234	3
8633	91843	97.558350973315	3
8633	92459	97.958460973315	4
8633	93116	98.458460973315	4
8633	93425	98.767416751551	2
8633	93650	98.97778914626	1
8633	93813	99.085462336682	1
8633	94155	99.385462336682	2
8633	94680	99.892384419052	4
8633	95207	100.293137509655	4
8633	95847	100.793137509655	4
8633	96051	100.92014869308	4
8633	97175	101.825329910765	9
8633	97878	102.425329910765	5
8633	98371	102.762828714874	5
8633	98881	103.125341828229	7
8633	99043	103.222763240623	7
8633	99921	104.023226270873	8
8633	100206	104.323226270873	2
8633	100806	104.825866338668	4
8633	101200	105.147854090345	2
8633	101332	105.249864974909	2
8633	102068	105.949864974909	7
8633	102807	106.55275248405	6
8633	103014	106.756822657244	1
8633	103050	106.787817372428	6
8633	103843	107.390368285063	6
8633	104184	107.690368285063	2
8633	104473	107.893847641407	1
8633	105218	108.535529657052	5
8633	105447	108.799007621844	8
8633	105485	108.838591660749	2
8633	106368	109.644361632153	8
8633	106579	109.844361632153	1
8633	107024	110.252426766749	3
8633	108219	111.359144153099	10
8633	108691	111.763084719371	3
8633	109240	112.147511944944	2
8633	109665	112.454255600032	2
8633	109757	112.545214362483	2
8633	109807	112.567907279074	10
8633	110225	112.948496979338	4
8633	110230	112.953593647308	4
8633	110281	112.965024457746	6
8633	110507	113.170290534794	2
8633	110882	113.577947174387	3
8633	111343	113.993265091628	3
8633	111659	114.299916248689	2
8633	113858	116.107014630004	19
8633	114230	116.507014630004	3
8633	114937	117.109534796336	5
8633	114998	117.186168000045	5
8633	115687	117.814113571864	6
8633	115879	117.990143256838	7
8633	116021	118.115634794073	2
8633	116731	118.699725285701	6
8633	117012	118.973964835129	9
8633	117020	118.987620280336	16
8633	117030	119.007733411099	2
8633	117370	119.319301829168	2
8633	117419	119.341973453076	2
8633	118403	120.142592447065	10
8633	118781	120.444438509845	2
8633	119580	121.044548509845	6
8633	120591	121.844548509845	7
8633	121595	122.74613526253	9
8633	122056	123.04613526253	2
8633	122943	123.762912826979	5
8633	123142	123.946454683353	9
8633	123749	124.452517527753	5
8633	124027	124.752517527753	2
8633	124155	124.854286321051	2
8633	124449	125.153050965579	3
8633	124677	125.359256853556	1
8633	125141	125.76002836758	4
8633	125633	126.16002836758	3
8633	125994	126.460653637251	2
8633	126380	126.760865688141	2
8633	126667	126.976906081666	2
8633	126778	127.07344447857	2
8633	127108	127.377746979946	3
8633	127452	127.677746979946	3
8633	128806	128.777856979946	12
8633	129269	129.177856979946	3
8633	129627	129.482946412331	2
8633	130052	129.788811392246	2
8633	130231	129.894368046387	1
8633	131538	130.994368046387	11
8633	132009	131.404366805362	3
8633	132307	131.609794228981	2
8633	132504	131.806621905827	4
8633	132553	131.825730705622	1
8633	132770	132.008220887313	1
8633	133024	132.208330887313	2
8633	133732	132.812085576573	5
8633	133970	133.022222835216	5
8633	134196	133.223075831837	2
8633	134448	133.423075831837	1
8633	134736	133.657304509612	2
8633	134739	133.659489383887	2
8633	135242	134.059599383887	5
8633	135695	134.459599383887	3
8633	136197	134.867468441083	3
8633	136547	135.168385405597	2
8634	198	20.20001	0.75
8634	580	20.805766170577	0.375
8634	1026	21.30853928506	0.5
8634	1034	21.309333243822	0.5
8634	1707	21.812121292914	0.5
8634	1713	21.813146551336	0.5
8634	1962	22.019531150846	0.875
8634	1976	22.021856685427	0.875
8634	2165	22.219838521025	0.875
8634	2722	22.629168366192	0.5
8634	3517	23.429168366192	-0.125
8634	3733	23.633113673794	0
8634	4338	24.14226359978	0.375
8634	4684	24.44226359978	0.75
8634	4866	24.576980729575	1
8634	5172	24.888127230492	0.75
8634	5542	25.225696913191	0.625
8634	5776	25.430494988224	0.75
8634	6653	26.130494988224	0.25
8634	7477	26.736250852526	0.25
8634	7694	26.865809057179	0.5
8634	7865	27.039700492525	0.75
8634	7932	27.069760048288	0.75
8634	7979	27.136063746807	-0.25
8634	8257	27.337374044894	0.625
8634	8535	27.637374044894	0.625
8634	8736	27.842292284159	0.875
8634	9445	28.45423032938	0.5
8634	9485	28.46803665719	0.375
8634	10695	29.468220501894	-0.5
8634	11043	29.768220501894	0.75
8634	11237	29.966391605409	0.625
8634	11437	30.176549704661	0.625
8634	11662	30.376659704661	0.75
8634	11823	30.576659704661	0.875
8634	12192	30.880453073153	0.75
8634	12370	30.99942750458	0.75
8634	12558	31.177953371141	0.375
8634	12970	31.486957994682	0.625
8634	14398	32.586957994682	-0.25
8634	14781	32.904474228188	0.75
8634	15176	33.20861493848	0.75
8634	15606	33.612072496022	0.625
8634	15965	33.921685494525	0.625
8634	16309	34.226180513076	0.625
8634	16698	34.526180513076	0.75
8634	17809	35.426290513076	-0.125
8634	18718	36.210735706687	0.5
8634	18736	36.226290513076	0.125
8634	19376	36.735756155519	0.375
8634	19592	36.935756155519	0.875
8634	20007	37.344036525854	0.625
8634	20185	37.552301587409	0.875
8634	20778	38.052411587409	0.25
8634	21495	38.652411587409	0.375
8634	22710	39.706403894352	0.875
8634	22861	39.807099571621	0.875
8634	23342	40.207099571621	0.625
8634	23574	40.407304044938	0.875
8634	24081	40.810277456031	0.5
8634	24356	41.010277456031	0.875
8634	24657	41.228977865646	0.875
8634	25021	41.53660974386	0.75
8634	25253	41.737238569684	0.875
8634	25394	41.846543434389	0.875
8634	25838	42.246543434389	0.625
8634	26156	42.54942200654	0.75
8634	26340	42.68288082506	0.25
8634	27063	43.28299082506	0.25
8634	27881	43.98299082506	0
8634	28427	44.386181569065	0.5
8634	29450	45.286181569065	0
8634	29712	45.495613849936	0.875
8634	30521	46.205392828949	0.25
8634	30773	46.497883188483	-0.375
8634	31214	46.909078693944	0.625
8634	31221	46.911956341901	0.25
8634	31401	47.100060032712	0.25
8634	31832	47.402220028091	0.625
8634	32163	47.702220028091	0.75
8634	32878	48.304604985196	0.25
8634	33889	49.104714985196	-0.125
8634	34395	49.504714985196	0.625
8634	34567	49.604824985196	0.75
8634	35669	50.604824985196	-0.125
8634	35788	50.713741469979	0.875
8634	35961	50.880580009681	0.875
8634	36016	50.914874049613	0.875
8634	36314	51.115049354757	0.625
8634	36727	51.415049354757	0.625
8634	37242	51.823928213961	0.625
8634	37713	52.327618692406	0.375
8634	37873	52.530093965677	0.875
8634	38596	53.234863126121	0.125
8634	38651	53.293113269972	0.625
8634	38809	53.448451256308	0.625
8634	38892	53.541018150824	0.75
8634	39115	53.702720788841	0.625
8634	39301	53.852795721288	0.625
8634	39555	54.060373300796	0.875
8634	39738	54.242441199664	0.125
8634	40525	54.950497189327	0.125
8634	41564	55.850497189327	0
8634	42857	56.852099924185	-0.125
8634	43367	57.252209924185	0.5
8634	43904	57.652209924185	0.625
8634	44998	58.559121632419	0
8634	45084	58.64168621268	0
8634	45439	58.862268595002	0.75
8634	45576	58.951070456404	0.875
8634	45763	59.079883773822	0.75
8634	46006	59.271607421848	0.5
8634	46167	59.375977132148	0.875
8634	47172	60.175977132148	0.125
8634	47880	60.778599112501	0.375
8634	49286	61.979588996636	-0.625
8634	50625	63.082263167727	-0.625
8634	51047	63.482263167727	0.625
8634	51162	63.583337738484	0.875
8634	51676	63.991793000757	0.5
8634	51773	64.085100750548	0.5
8634	52270	64.498078534631	0.5
8634	52883	65.001558141336	0
8634	53277	65.298815380926	0
8634	53296	65.305923003258	0.625
8634	53971	65.906067389664	0.25
8634	54714	66.606067389664	0.125
8634	55320	67.115617872976	0.375
8634	55531	67.320323916206	0.875
8634	55648	67.434078307418	0.625
8634	56143	67.840217846327	0.625
8634	56209	67.917992092452	-0.125
8634	56412	68.043049072049	0.875
8634	56437	68.049437526655	0.875
8634	56494	68.120889340745	0.875
8634	56508	68.127783914706	-0.125
8634	56788	68.350309935125	0.625
8634	56790	68.351480537218	0.625
8634	57046	68.618993974146	0.5
8634	57098	68.652877372345	0.75
8634	57105	68.654474289963	0.75
8634	57336	68.854584289963	0.75
8634	57546	69.054584289963	0.875
8634	58099	69.544103181554	0.875
8634	58722	70.044103181554	0.5
8634	59737	70.852773898039	0
8634	59903	70.961967537477	1
8634	60245	71.268895080761	0.75
8634	61008	71.969005080761	0.125
8634	62196	72.969005080761	-0.375
8634	62910	73.574172095828	0.25
8634	63259	73.874172095828	0.75
8634	64039	74.59104712294	0.25
8634	64563	75.081685916093	0.25
8634	64866	75.295793810538	0.125
8634	65079	75.489516883627	0.625
8634	65174	75.588563683548	0.5
8634	65490	75.805013761699	0.5
8634	65599	75.891895760795	0.5
8634	65801	76.088972648693	0.5
8634	67316	77.196065796862	-0.375
8634	68317	77.896065796862	0.25
8634	68671	78.205087800967	0.75
8634	69292	78.712515039936	0.375
8634	69658	79.012515039936	0.75
8634	70162	79.429901980068	0.625
8634	70624	79.907417519196	0.625
8634	70793	80.013401821323	-0.375
8634	70897	80.076693228906	0.75
8634	71296	80.380398486076	0.625
8634	72043	80.880398486076	0.375
8634	72216	81.036821391961	0.625
8634	72767	81.488760358351	0.375
8634	72876	81.561095023251	0.5
8634	73069	81.751890972801	0.875
8634	73435	82.057881547058	0.75
8634	73454	82.089861134781	0.25
8634	73472	82.12168411187	0.75
8634	73742	82.330226173644	0.75
8634	75699	83.97435084447	0.25
8634	75717	84.015116955158	-0.75
8634	75723	84.030226173644	-1.375
8634	76023	84.231410468834	0.75
8634	76569	84.631410468834	0.625
8634	77485	85.333599770328	0.125
8634	77515	85.368419924624	0.375
8634	77931	85.769083716027	0.625
8634	78199	85.977810290594	0.75
8634	79404	87.077810290594	-0.25
8634	79960	87.58707984009	0.5
8634	80538	88.087497981245	0.5
8634	80636	88.170412203991	0.5
8634	80889	88.39257994799	0.75
8634	80975	88.425830189602	0.625
8634	81191	88.597554184548	0.875
8634	81294	88.675627082828	0.5
8634	81560	88.880795124918	0.75
8634	81920	89.180795124918	0.75
8634	83866	90.686154929185	-0.875
8634	84484	91.186154929185	0.5
8634	85105	91.690218326293	0.5
8634	85481	91.994682022241	0.75
8634	85950	92.418278740506	0.5
8634	86287	92.720949714113	0.25
8634	86510	92.924455742177	0.25
8634	86514	92.92493952361	0.5
8634	87111	93.426870937856	0.625
8634	87667	93.834572978899	0.5
8634	88361	94.534572978899	0.25
8634	88625	94.738451295915	0.875
8634	88970	95.042271041694	0.625
8634	89893	95.942271041694	0
8634	90221	96.248429328329	0.75
8634	90439	96.453469914191	0.875
8634	90470	96.464922760156	0.125
8634	91073	96.971900757234	0.375
8634	91496	97.271900757234	0.625
8634	91843	97.558350973315	0.625
8634	92459	97.958460973315	0.5
8634	93116	98.458460973315	0.5
8634	93425	98.767416751551	0.75
8634	93650	98.97778914626	0.875
8634	93813	99.085462336682	0.875
8634	94155	99.385462336682	0.75
8634	94680	99.892384419052	0.5
8634	95207	100.293137509655	0.5
8634	95847	100.793137509655	0.5
8634	96051	100.92014869308	0.5
8634	97175	101.825329910765	-0.125
8634	97878	102.425329910765	0.375
8634	98371	102.762828714874	0.375
8634	98881	103.125341828229	0.125
8634	99043	103.222763240623	0.125
8634	99921	104.023226270873	0
8634	100206	104.323226270873	0.75
8634	100806	104.825866338668	0.5
8634	101200	105.147854090345	0.75
8634	101332	105.249864974909	0.75
8634	102068	105.949864974909	0.125
8634	102807	106.55275248405	0.25
8634	103014	106.756822657244	0.875
8634	103050	106.787817372428	0.25
8634	103843	107.390368285063	0.25
8634	104184	107.690368285063	0.75
8634	104473	107.893847641407	0.875
8634	105218	108.535529657052	0.375
8634	105447	108.799007621844	0
8634	105485	108.838591660749	0.75
8634	106368	109.644361632153	0
8634	106579	109.844361632153	0.875
8634	107024	110.252426766749	0.625
8634	108219	111.359144153099	-0.25
8634	108691	111.763084719371	0.625
8634	109240	112.147511944944	0.75
8634	109665	112.454255600032	0.75
8634	109757	112.545214362483	0.75
8634	109807	112.567907279074	-0.25
8634	110225	112.948496979338	0.5
8634	110230	112.953593647308	0.5
8634	110281	112.965024457746	0.25
8634	110507	113.170290534794	0.75
8634	110882	113.577947174387	0.625
8634	111343	113.993265091628	0.625
8634	111659	114.299916248689	0.75
8634	113858	116.107014630004	-1.375
8634	114230	116.507014630004	0.625
8634	114937	117.109534796336	0.375
8634	114998	117.186168000045	0.375
8634	115687	117.814113571864	0.33333331346512
8634	115879	117.990143256838	0.125
8634	116021	118.115634794073	0.75
8634	116731	118.699725285701	0.25
8634	117012	118.973964835129	-0.125
8634	117020	118.987620280336	-1
8634	117030	119.007733411099	0.75
8634	117370	119.319301829168	0.75
8634	117419	119.341973453076	0.75
8634	118403	120.142592447065	-0.25
8634	118781	120.444438509845	0.75
8634	119580	121.044548509845	0.25
8634	120591	121.844548509845	0.125
8634	121595	122.74613526253	-0.125
8634	122056	123.04613526253	0.75
8634	122943	123.762912826979	0.375
8634	123142	123.946454683353	-0.125
8634	123749	124.452517527753	0.375
8634	124027	124.752517527753	0.75
8634	124155	124.854286321051	0.75
8634	124449	125.153050965579	0.625
8634	124677	125.359256853556	0.875
8634	125141	125.76002836758	0.5
8634	125633	126.16002836758	0.625
8634	125994	126.460653637251	0.75
8634	126380	126.760865688141	0.75
8634	126667	126.976906081666	0.75
8634	126778	127.07344447857	0.75
8634	127108	127.377746979946	0.625
8634	127452	127.677746979946	0.625
8634	128806	128.777856979946	-0.5
8634	129269	129.177856979946	0.625
8634	129627	129.482946412331	0.75
8634	130052	129.788811392246	0.75
8634	130231	129.894368046387	0.875
8634	131538	130.994368046387	-0.375
8634	132009	131.404366805362	0.625
8634	132307	131.609794228981	0.75
8634	132504	131.806621905827	0.5
8634	132553	131.825730705622	0.875
8634	132770	132.008220887313	0.875
8634	133024	132.208330887313	0.75
8634	133732	132.812085576573	0.375
8634	133970	133.022222835216	0.375
8634	134196	133.223075831837	0.75
8634	134448	133.423075831837	0.875
8634	134736	133.657304509612	0.75
8634	134739	133.659489383887	0.75
8634	135242	134.059599383887	0.375
8634	135695	134.459599383887	0.625
8634	136197	134.867468441083	0.625
8634	136547	135.168385405597	0.75
8635	198	20.20001	0.2
8635	580	20.805766170577	0.6
8635	1026	21.30853928506	0.5
8635	1034	21.309333243822	0.5
8635	1707	21.812121292914	0.5
8635	1713	21.813146551336	0.5
8635	1962	22.019531150846	0.2
8635	1976	22.021856685427	0.2
8635	2165	22.219838521025	0.2
8635	2722	22.629168366192	0.4
8635	3517	23.429168366192	0.8
8635	3733	23.633113673794	0.8
8635	4338	24.14226359978	0.5
8635	4684	24.44226359978	0.3
8635	4866	24.576980729575	0.1
8635	5172	24.888127230492	0.3
8635	5542	25.225696913191	0.4
8635	5776	25.430494988224	0.2
8635	6653	26.130494988224	0.7
8635	7477	26.736250852526	0.6
8635	7694	26.865809057179	0.5
8635	7865	27.039700492525	0.3
8635	7932	27.069760048288	0.2
8635	7979	27.136063746807	0.9
8635	8257	27.337374044894	0.2
8635	8535	27.637374044894	0.3
8635	8736	27.842292284159	0.2
8635	9445	28.45423032938	0.5
8635	9485	28.46803665719	0.6
8635	10695	29.468220501894	1
8635	11043	29.768220501894	0.3
8635	11237	29.966391605409	0.3
8635	11437	30.176549704661	0.4
8635	11662	30.376659704661	0.2
8635	11823	30.576659704661	0.2
8635	12192	30.880453073153	0.3
8635	12370	30.99942750458	0.3
8635	12558	31.177953371141	0.5
8635	12970	31.486957994682	0.3
8635	14398	32.586957994682	1.1
8635	14781	32.904474228188	0.3
8635	15176	33.20861493848	0.3
8635	15606	33.612072496022	0.4
8635	15965	33.921685494525	0.3
8635	16309	34.226180513076	0.3
8635	16698	34.526180513076	0.3
8635	17809	35.426290513076	0.9
8635	18718	36.210735706687	0.5
8635	18736	36.226290513076	0.8
8635	19376	36.735756155519	0.5
8635	19592	36.935756155519	0.2
8635	20007	37.344036525854	0.4
8635	20185	37.552301587409	0.2
8635	20778	38.052411587409	0.5
8635	21495	38.652411587409	0.6
8635	22710	39.706403894352	0.2
8635	22861	39.807099571621	0.1
8635	23342	40.207099571621	0.4
8635	23574	40.407304044938	0.2
8635	24081	40.810277456031	0.4
8635	24356	41.010277456031	0.2
8635	24657	41.228977865646	0.2
8635	25021	41.53660974386	0.3
8635	25253	41.737238569684	0.2
8635	25394	41.846543434389	0.1
8635	25838	42.246543434389	0.4
8635	26156	42.54942200654	0.3
8635	26340	42.68288082506	0.6
8635	27063	43.28299082506	0.6
8635	27881	43.98299082506	0.7
8635	28427	44.386181569065	0.4
8635	29450	45.286181569065	0.9
8635	29712	45.495613849936	0.2
8635	30521	46.205392828949	0.7
8635	30773	46.497883188483	1.1
8635	31214	46.909078693944	0.4
8635	31221	46.911956341901	0.7
8635	31401	47.100060032712	0.6
8635	31832	47.402220028091	0.3
8635	32163	47.702220028091	0.3
8635	32878	48.304604985196	0.6
8635	33889	49.104714985196	0.8
8635	34395	49.504714985196	0.4
8635	34567	49.604824985196	0.1
8635	35669	50.604824985196	1
8635	35788	50.713741469979	0.1
8635	35961	50.880580009681	0.2
8635	36016	50.914874049613	0.2
8635	36314	51.115049354757	0.2
8635	36727	51.415049354757	0.3
8635	37242	51.823928213961	0.4
8635	37713	52.327618692406	0.5
8635	37873	52.530093965677	0.2
8635	38596	53.234863126121	0.7
8635	38651	53.293113269972	0.4
8635	38809	53.448451256308	0.4
8635	38892	53.541018150824	0.3
8635	39115	53.702720788841	0.4
8635	39301	53.852795721288	0.4
8635	39555	54.060373300796	0.2
8635	39738	54.242441199664	0.7
8635	40525	54.950497189327	0.7
8635	41564	55.850497189327	0.9
8635	42857	56.852099924185	1
8635	43367	57.252209924185	0.4
8635	43904	57.652209924185	0.4
8635	44998	58.559121632419	0.9
8635	45084	58.64168621268	0.9
8635	45439	58.862268595002	0.3
8635	45576	58.951070456404	0.2
8635	45763	59.079883773822	0.2
8635	46006	59.271607421848	0.4
8635	46167	59.375977132148	0.1
8635	47172	60.175977132148	0.8
8635	47880	60.778599112501	0.6
8635	49286	61.979588996636	1.2
8635	50625	63.082263167727	1.1
8635	51047	63.482263167727	0.4
8635	51162	63.583337738484	0.1
8635	51676	63.991793000757	0.5