version 2
run Stability-149-20130526-18:57:16-1898
attr configname Stability
attr datetime 20130526-18:57:16
attr experiment Stability
attr inifile omnetpp.ini
attr iterationvars $0=1e-8
attr iterationvars2 "$0=1e-8, $repetition=9"
attr measurement $0=1e-8
attr network Network
attr processid 1898
attr repetition 9
attr replication #9
attr resultdir results
attr runnumber 149
attr seedset 149

vector 14549  Network.churner  inGoingSizeSig:vector  ETV
vector 14471  Network.dyn_peer[6]  lookupHopsSig:vector  ETV
vector 14472  Network.dyn_peer[6]  lookupStabilitySig:vector  ETV
vector 14473  Network.dyn_peer[6]  lookupTimeSig:vector  ETV
vector 14486  Network.dyn_peer[11]  lookupHopsSig:vector  ETV
vector 14487  Network.dyn_peer[11]  lookupStabilitySig:vector  ETV
vector 14488  Network.dyn_peer[11]  lookupTimeSig:vector  ETV
vector 14489  Network.dyn_peer[12]  lookupHopsSig:vector  ETV
vector 14490  Network.dyn_peer[12]  lookupStabilitySig:vector  ETV
vector 14491  Network.dyn_peer[12]  lookupTimeSig:vector  ETV
vector 14453  Network.dyn_peer[0]  lookupHopsSig:vector  ETV
vector 14454  Network.dyn_peer[0]  lookupStabilitySig:vector  ETV
vector 14455  Network.dyn_peer[0]  lookupTimeSig:vector  ETV
vector 14456  Network.dyn_peer[1]  lookupHopsSig:vector  ETV
vector 14457  Network.dyn_peer[1]  lookupStabilitySig:vector  ETV
vector 14458  Network.dyn_peer[1]  lookupTimeSig:vector  ETV
vector 14474  Network.dyn_peer[7]  lookupHopsSig:vector  ETV
vector 14475  Network.dyn_peer[7]  lookupStabilitySig:vector  ETV
vector 14476  Network.dyn_peer[7]  lookupTimeSig:vector  ETV
vector 14492  Network.dyn_peer[13]  lookupHopsSig:vector  ETV
vector 14493  Network.dyn_peer[13]  lookupStabilitySig:vector  ETV
vector 14494  Network.dyn_peer[13]  lookupTimeSig:vector  ETV
vector 14498  Network.dyn_peer[15]  lookupHopsSig:vector  ETV
vector 14499  Network.dyn_peer[15]  lookupStabilitySig:vector  ETV
vector 14500  Network.dyn_peer[15]  lookupTimeSig:vector  ETV
vector 14510  Network.dyn_peer[19]  lookupHopsSig:vector  ETV
vector 14511  Network.dyn_peer[19]  lookupStabilitySig:vector  ETV
vector 14512  Network.dyn_peer[19]  lookupTimeSig:vector  ETV
vector 14516  Network.dyn_peer[21]  lookupHopsSig:vector  ETV
vector 14517  Network.dyn_peer[21]  lookupStabilitySig:vector  ETV
vector 14518  Network.dyn_peer[21]  lookupTimeSig:vector  ETV
vector 14519  Network.dyn_peer[22]  lookupHopsSig:vector  ETV
vector 14520  Network.dyn_peer[22]  lookupStabilitySig:vector  ETV
vector 14521  Network.dyn_peer[22]  lookupTimeSig:vector  ETV
vector 14522  Network.dyn_peer[23]  lookupHopsSig:vector  ETV
vector 14523  Network.dyn_peer[23]  lookupStabilitySig:vector  ETV
vector 14524  Network.dyn_peer[23]  lookupTimeSig:vector  ETV
vector 14537  Network.dyn_peer[28]  lookupHopsSig:vector  ETV
vector 14538  Network.dyn_peer[28]  lookupStabilitySig:vector  ETV
vector 14539  Network.dyn_peer[28]  lookupTimeSig:vector  ETV
vector 14459  Network.dyn_peer[2]  lookupHopsSig:vector  ETV
vector 14460  Network.dyn_peer[2]  lookupStabilitySig:vector  ETV
vector 14461  Network.dyn_peer[2]  lookupTimeSig:vector  ETV
vector 14462  Network.dyn_peer[3]  lookupHopsSig:vector  ETV
vector 14463  Network.dyn_peer[3]  lookupStabilitySig:vector  ETV
vector 14464  Network.dyn_peer[3]  lookupTimeSig:vector  ETV
vector 14468  Network.dyn_peer[5]  lookupHopsSig:vector  ETV
vector 14469  Network.dyn_peer[5]  lookupStabilitySig:vector  ETV
vector 14470  Network.dyn_peer[5]  lookupTimeSig:vector  ETV
vector 14480  Network.dyn_peer[9]  lookupHopsSig:vector  ETV
vector 14481  Network.dyn_peer[9]  lookupStabilitySig:vector  ETV
vector 14482  Network.dyn_peer[9]  lookupTimeSig:vector  ETV
vector 14495  Network.dyn_peer[14]  lookupHopsSig:vector  ETV
vector 14496  Network.dyn_peer[14]  lookupStabilitySig:vector  ETV
vector 14497  Network.dyn_peer[14]  lookupTimeSig:vector  ETV
vector 14501  Network.dyn_peer[16]  lookupHopsSig:vector  ETV
vector 14502  Network.dyn_peer[16]  lookupStabilitySig:vector  ETV
vector 14503  Network.dyn_peer[16]  lookupTimeSig:vector  ETV
vector 14504  Network.dyn_peer[17]  lookupHopsSig:vector  ETV
vector 14505  Network.dyn_peer[17]  lookupStabilitySig:vector  ETV
vector 14506  Network.dyn_peer[17]  lookupTimeSig:vector  ETV
vector 14525  Network.dyn_peer[24]  lookupHopsSig:vector  ETV
vector 14526  Network.dyn_peer[24]  lookupStabilitySig:vector  ETV
vector 14527  Network.dyn_peer[24]  lookupTimeSig:vector  ETV
vector 14531  Network.dyn_peer[26]  lookupHopsSig:vector  ETV
vector 14532  Network.dyn_peer[26]  lookupStabilitySig:vector  ETV
vector 14533  Network.dyn_peer[26]  lookupTimeSig:vector  ETV
vector 14465  Network.dyn_peer[4]  lookupHopsSig:vector  ETV
vector 14466  Network.dyn_peer[4]  lookupStabilitySig:vector  ETV
vector 14467  Network.dyn_peer[4]  lookupTimeSig:vector  ETV
vector 14483  Network.dyn_peer[10]  lookupHopsSig:vector  ETV
vector 14484  Network.dyn_peer[10]  lookupStabilitySig:vector  ETV
vector 14485  Network.dyn_peer[10]  lookupTimeSig:vector  ETV
vector 14507  Network.dyn_peer[18]  lookupHopsSig:vector  ETV
vector 14508  Network.dyn_peer[18]  lookupStabilitySig:vector  ETV
vector 14509  Network.dyn_peer[18]  lookupTimeSig:vector  ETV
vector 14513  Network.dyn_peer[20]  lookupHopsSig:vector  ETV
vector 14514  Network.dyn_peer[20]  lookupStabilitySig:vector  ETV
vector 14515  Network.dyn_peer[20]  lookupTimeSig:vector  ETV
vector 14534  Network.dyn_peer[27]  lookupHopsSig:vector  ETV
vector 14535  Network.dyn_peer[27]  lookupStabilitySig:vector  ETV
vector 14536  Network.dyn_peer[27]  lookupTimeSig:vector  ETV
vector 14540  Network.dyn_peer[29]  lookupHopsSig:vector  ETV
vector 14541  Network.dyn_peer[29]  lookupStabilitySig:vector  ETV
vector 14542  Network.dyn_peer[29]  lookupTimeSig:vector  ETV
vector 14543  Network.dyn_peer[30]  lookupHopsSig:vector  ETV
vector 14544  Network.dyn_peer[30]  lookupStabilitySig:vector  ETV
vector 14545  Network.dyn_peer[30]  lookupTimeSig:vector  ETV
vector 14528  Network.dyn_peer[25]  lookupHopsSig:vector  ETV
vector 14529  Network.dyn_peer[25]  lookupStabilitySig:vector  ETV
vector 14530  Network.dyn_peer[25]  lookupTimeSig:vector  ETV
vector 14546  Network.dyn_peer[31]  lookupHopsSig:vector  ETV
vector 14547  Network.dyn_peer[31]  lookupStabilitySig:vector  ETV
vector 14548  Network.dyn_peer[31]  lookupTimeSig:vector  ETV
vector 14477  Network.dyn_peer[8]  lookupHopsSig:vector  ETV
vector 14478  Network.dyn_peer[8]  lookupStabilitySig:vector  ETV
vector 14479  Network.dyn_peer[8]  lookupTimeSig:vector  ETV
14453	134	20.10000000001	1
14453	394	20.50000000001	3
14453	1120	21.40020000024	5
14453	1639	21.90020000024	4
14453	1847	22.104468816982	1
14453	2614	22.813831193016	7
14453	3663	23.722722224058	8
14453	3716	23.810844115012	8
14453	4143	24.215125755676	15
14453	4199	24.22701487828	4
14453	4296	24.32600368478	4
14453	4526	24.528408274245	2
14453	5303	25.228408274245	7
14453	5685	25.534578357385	2
14453	6566	26.140940030703	5
14453	6819	26.346841621267	1
14453	6964	26.456845363941	5
14453	7665	27.056945363951	6
14453	7883	27.256945363951	1
14453	8407	27.658335466223	3
14453	9315	28.358435466233	8
14453	9824	28.758435466233	3
14453	10075	28.958558958805	1
14453	10601	29.359036624833	3
14453	11894	30.462261556346	12
14453	12421	30.876648014527	3
14453	12657	31.07877490271	1
14453	13120	31.480555954471	5
14453	13137	31.485762374468	5
14453	13352	31.69327509689	2
14453	13476	31.881312566381	3
14453	13505	31.89036226421	2
14453	13552	31.912112259131	1
14453	13810	32.165243082034	10
14453	14952	33.166710481717	10
14453	16162	34.166710481717	9
14453	16502	34.472828037879	2
14453	16953	34.882178387025	3
14453	17114	34.987256525024	1
14453	17959	35.687256525024	6
14453	18958	36.59711941257	9
14453	19690	37.302925431858	7
14453	20335	37.902925431858	6
14453	21175	38.614133855096	6
14453	21559	39.016004162963	4
14453	21809	39.216004162963	1
14453	22760	40.019283934616	7
14453	22881	40.125171263733	0
14453	23441	40.589997110278	1
14453	24155	41.189997110278	6
14453	24526	41.474522432198	1
14453	25059	41.976130642862	4
14453	25103	41.999713022682	9
14453	25309	42.206809132083	1
14453	25939	42.813678970023	6
14453	26484	43.313678970023	4
14453	26979	43.813778970033	5
14453	27236	44.014918112581	1
14453	27614	44.419096621755	3
14453	27833	44.621319464021	1
14453	28667	45.297095328295	2
14453	28718	45.329628419844	7
14453	29675	46.138420311222	9
14453	30011	46.438420311222	2
14453	30641	46.938717870374	4
14453	30658	46.944997242351	4
14453	31077	47.245283002915	2
14453	31084	47.246710137284	2
14453	31104	47.25374388165	2
14453	31618	47.659237850861	3
14453	31638	47.676247222843	3
14453	32672	48.480045376767	8
14453	33179	48.880045376767	3
14453	33868	49.470201290256	1
14453	33931	49.484787891858	5
14453	34196	49.689231730028	2
14453	35309	50.660365318118	7
14453	35626	50.960365318118	2
14453	35910	51.268774139073	2
14453	36301	51.570081158662	2
14453	36602	51.849574701931	2
14453	37209	52.351199182927	5
14453	37431	52.551199182927	2
14453	37939	53.052026858484	4
14453	38161	53.260127004499	1
14453	38182	53.266813925786	0
14453	38806	53.866813925786	5
14453	40002	54.914051356371	2
14453	40919	55.614151356381	7
14453	41282	55.914151356381	2
14453	41668	56.218221711602	2
14453	41706	56.246635713629	2
14453	41816	56.356574799379	1
14453	42047	56.556574799379	1
14453	42293	56.760945212408	1
14453	43435	57.769443990609	10
14453	43829	58.069443990609	2
14453	44094	58.274071475493	1
14453	44487	58.586049668445	1
14453	45313	59.386049668445	7
14453	45671	59.696669098736	6
14453	45798	59.80415010274	1
14453	46437	60.30415010274	4
14453	48274	61.81187810649	7
14453	49044	62.51187810649	6
14453	49890	63.213967366188	6
14453	50685	63.932829986943	4
14453	51068	64.228124493554	11
14453	51095	64.230400287535	0
14453	51495	64.530400287535	2
14453	51864	64.830755133629	3
14453	52663	65.537765858185	8
14453	52830	65.737765858185	1
14453	53400	66.245246336553	4
14453	53570	66.377572928053	2
14453	54341	67.085616829894	7
14453	54697	67.385616829894	3
14453	54926	67.58877828923	1
14453	55400	67.98887828924	5
14453	55894	68.38887828924	3
14453	56597	68.89218378597	5
14453	56934	69.19218378597	2
14453	57154	69.39228378598	3
14453	57916	69.99228378598	6
14453	58582	70.601744763016	6
14453	58936	71.008409992424	3
14453	59221	71.310496179929	2
14453	59357	71.428780877415	2
14453	60478	72.235042086639	8
14453	61676	73.135042086639	8
14453	61931	73.344000997778	1
14453	62644	73.846175010501	4
14453	62672	73.890546122402	4
14453	62800	73.993902362332	1
14453	63021	74.20219986673	1
14453	63083	74.251547376079	3
14453	63104	74.257220700407	0
14453	63425	74.557220700407	2
14453	64015	75.058647313263	4
14453	64052	75.066234495863	4
14453	64292	75.263427539107	2
14453	64752	75.565184134519	2
14453	65141	75.87488972142	3
14453	65342	76.07488972142	1
14453	66392	76.91153556738	9
14453	66819	77.31153556738	3
14453	67930	78.420799629192	9
14453	68449	78.826082953536	4
14453	68739	79.126082953536	2
14453	69148	79.536008492936	3
14453	69422	79.744705793153	1
14453	69738	79.946495994135	2
14453	70410	80.548997186956	5
14453	70629	80.749174671615	1
14453	71165	81.149866557603	4
14453	72273	82.149866557603	9
14453	72509	82.357684085098	1
14453	72968	82.760625226424	3
14453	73074	82.864472884471	2
14453	73241	82.968693811633	1
14453	73896	83.468693811633	4
14453	74300	83.772968383743	2
14453	74655	84.045423325044	1
14453	75533	84.745423325044	6
14453	75984	85.054559285468	5
14453	76029	85.103364186054	3
14453	76173	85.227582749672	3
14453	76191	85.257624883232	1
14453	76444	85.535440228107	2
14453	78048	86.943705427726	16
14453	78863	87.543705427726	6
14453	80181	88.652264591057	12
14453	80847	89.160253358811	4
14453	81113	89.388525912175	1
14453	81321	89.609535953308	1
14453	81679	89.909777199268	3
14453	83560	91.412972010431	7
14453	84684	92.316081347145	9
14453	85144	92.719963632606	4
14453	85527	93.027514507077	2
14453	85535	93.036580917821	2
14453	87475	94.546467364164	15
14453	88127	95.046467364164	4
14453	89241	96.051415247003	9
14453	89321	96.107753055067	9
14453	89549	96.317100292225	2
14453	89988	96.717100292225	3
14453	90658	97.325657497562	5
14453	90856	97.430262811421	2
14453	91538	97.974459275972	1
14453	91775	98.174459275972	1
14453	91794	98.177613510812	0
14453	92465	98.777613510812	5
14453	93101	99.282337279754	4
14453	93228	99.390766914447	4
14453	93314	99.468578116804	4
14453	93464	99.570257920461	1
14453	93965	100.070257920461	4
14453	94443	100.576410510473	4
14453	94918	100.983898191669	4
14453	95070	101.101910451993	5
14453	95090	101.128118743122	4
14453	95105	101.130114354988	0
14453	95697	101.586735001234	3
14453	96607	102.288917077065	8
14453	97596	103.145497444864	6
14453	97620	103.188917077065	8
14453	97875	103.389971000954	1
14453	98566	103.896849507235	5
14453	99847	104.896849507235	9
14453	100335	105.504770950343	5
14453	100978	106.110404343277	5
14453	101849	106.823793661796	7
14453	102318	107.127914069476	3
14453	103010	107.627914069476	4
14453	103458	108.128198712488	4
14453	103912	108.528357448323	5
14453	104809	109.228357448323	6
14453	105124	109.535969388048	2
14453	105961	110.336656647337	3
14453	106304	110.644286343847	3
14453	107431	111.544286343847	11
14453	107444	111.556178921193	5
14453	107919	111.967014557282	2
14453	108280	112.257172052007	6
14453	108356	112.283377600795	3
14453	108831	112.683691281002	4
14453	109582	113.383691281002	6
14453	109903	113.687968288397	2
14453	109910	113.690438613284	2
14453	109992	113.791033736445	2
14453	110343	114.191133736455	4
14453	112243	115.791133736455	16
14453	112792	116.2099237028	4
14453	113182	116.518650387511	3
14453	113231	116.536055924221	2
14453	113421	116.724625583206	1
14453	113669	116.925742166956	2
14453	114019	117.225742166956	3
14453	114490	117.62650196191	3
14453	114989	118.029565679613	3
14453	115338	118.323688577438	2
14453	115755	118.626024986637	5
14453	115897	118.727827852449	1
14453	116524	119.327827852449	5
14453	116804	119.630771222078	2
14453	117030	119.833363067114	1
14453	117067	119.843258971253	0
14453	117394	120.143258971253	3
14453	117810	120.553067121508	3
14453	118166	120.86167697305	2
14453	118578	121.261679164985	4
14453	118865	121.56181727873	3
14453	119200	121.863844633247	2
14453	119477	122.084958068682	1
14453	120225	122.685410027004	6
14453	121096	123.485410027004	7
14453	121818	124.190394289035	6
14453	122040	124.396390997751	1
14453	123134	125.201508011806	7
14453	123823	125.801608011816	6
14453	124259	126.211786086542	3
14453	124770	126.63172352124	3
14453	125013	126.839012095917	2
14453	125530	127.242584379951	3
14453	125815	127.446757425288	5
14453	125818	127.448058735271	3
14453	125825	127.457222939938	1
14453	125980	127.564770081575	1
14453	126419	127.864770081575	2
14453	126824	128.170407584387	2
14453	127052	128.377321555756	2
14453	127289	128.579941025816	4
14453	127570	128.83527241694	5
14453	127593	128.840886048822	7
14453	127980	129.142761569654	3
14453	128521	129.542761569654	3
14453	129062	129.929752797925	3
14453	129093	129.944660883776	3
14453	129666	130.345520978758	4
14453	130564	130.928450874789	3
14453	131144	131.428450874789	4
14453	131964	132.032922578647	6
14453	132170	132.241815652583	1
14453	132312	132.384442999004	5
14453	132767	132.793168319266	4
14453	133451	133.393168319266	5
14453	134462	134.186065724135	3
14453	134747	134.395595431318	10
14453	135041	134.690821702281	4
14454	134	20.10000000001	0.875
14454	394	20.50000000001	0.625
14454	1120	21.40020000024	0.375
14454	1639	21.90020000024	0.5
14454	1847	22.104468816982	0.875
14454	2614	22.813831193016	0.125
14454	3663	23.722722224058	0
14454	3716	23.810844115012	0
14454	4143	24.215125755676	-0.875
14454	4199	24.22701487828	0.5
14454	4296	24.32600368478	0.5
14454	4526	24.528408274245	0.75
14454	5303	25.228408274245	0.125
14454	5685	25.534578357385	0.75
14454	6566	26.140940030703	0.375
14454	6819	26.346841621267	0.875
14454	6964	26.456845363941	0.375
14454	7665	27.056945363951	0.25
14454	7883	27.256945363951	0.875
14454	8407	27.658335466223	0.625
14454	9315	28.358435466233	0
14454	9824	28.758435466233	0.625
14454	10075	28.958558958805	0.875
14454	10601	29.359036624833	0.625
14454	11894	30.462261556346	-0.5
14454	12421	30.876648014527	0.625
14454	12657	31.07877490271	0.875
14454	13120	31.480555954471	0.375
14454	13137	31.485762374468	0.375
14454	13352	31.69327509689	0.75
14454	13476	31.881312566381	0.625
14454	13505	31.89036226421	0.75
14454	13552	31.912112259131	0.875
14454	13810	32.165243082034	-0.25
14454	14952	33.166710481717	-0.25
14454	16162	34.166710481717	-0.125
14454	16502	34.472828037879	0.75
14454	16953	34.882178387025	0.625
14454	17114	34.987256525024	0.875
14454	17959	35.687256525024	0.25
14454	18958	36.59711941257	-0.125
14454	19690	37.302925431858	0.125
14454	20335	37.902925431858	0.25
14454	21175	38.614133855096	0.25
14454	21559	39.016004162963	0.5
14454	21809	39.216004162963	0.875
14454	22760	40.019283934616	0.125
14454	22881	40.125171263733	1
14454	23441	40.589997110278	0.875
14454	24155	41.189997110278	0.25
14454	24526	41.474522432198	0.875
14454	25059	41.976130642862	0.5
14454	25103	41.999713022682	-0.125
14454	25309	42.206809132083	0.875
14454	25939	42.813678970023	0.25
14454	26484	43.313678970023	0.5
14454	26979	43.813778970033	0.375
14454	27236	44.014918112581	0.875
14454	27614	44.419096621755	0.625
14454	27833	44.621319464021	0.875
14454	28667	45.297095328295	0.75
14454	28718	45.329628419844	0.125
14454	29675	46.138420311222	-0.125
14454	30011	46.438420311222	0.75
14454	30641	46.938717870374	0.5
14454	30658	46.944997242351	0.5
14454	31077	47.245283002915	0.75
14454	31084	47.246710137284	0.75
14454	31104	47.25374388165	0.75
14454	31618	47.659237850861	0.625
14454	31638	47.676247222843	0.625
14454	32672	48.480045376767	0
14454	33179	48.880045376767	0.625
14454	33868	49.470201290256	0.875
14454	33931	49.484787891858	0.375
14454	34196	49.689231730028	0.75
14454	35309	50.660365318118	0.125
14454	35626	50.960365318118	0.75
14454	35910	51.268774139073	0.75
14454	36301	51.570081158662	0.75
14454	36602	51.849574701931	0.75
14454	37209	52.351199182927	0.375
14454	37431	52.551199182927	0.75
14454	37939	53.052026858484	0.5
14454	38161	53.260127004499	0.875
14454	38182	53.266813925786	1
14454	38806	53.866813925786	0.375
14454	40002	54.914051356371	0.75
14454	40919	55.614151356381	0.125
14454	41282	55.914151356381	0.75
14454	41668	56.218221711602	0.75
14454	41706	56.246635713629	0.75
14454	41816	56.356574799379	0.875
14454	42047	56.556574799379	0.875
14454	42293	56.760945212408	0.875
14454	43435	57.769443990609	-0.25
14454	43829	58.069443990609	0.75
14454	44094	58.274071475493	0.875
14454	44487	58.586049668445	0.875
14454	45313	59.386049668445	0.125
14454	45671	59.696669098736	0.25
14454	45798	59.80415010274	0.875
14454	46437	60.30415010274	0.5
14454	48274	61.81187810649	0.125
14454	49044	62.51187810649	0.25
14454	49890	63.213967366188	0.25
14454	50685	63.932829986943	0.5
14454	51068	64.228124493554	-0.375
14454	51095	64.230400287535	1
14454	51495	64.530400287535	0.75
14454	51864	64.830755133629	0.625
14454	52663	65.537765858185	0
14454	52830	65.737765858185	0.875
14454	53400	66.245246336553	0.5
14454	53570	66.377572928053	0.75
14454	54341	67.085616829894	0.125
14454	54697	67.385616829894	0.625
14454	54926	67.58877828923	0.875
14454	55400	67.98887828924	0.375
14454	55894	68.38887828924	0.625
14454	56597	68.89218378597	0.375
14454	56934	69.19218378597	0.75
14454	57154	69.39228378598	0.625
14454	57916	69.99228378598	0.25
14454	58582	70.601744763016	0.25
14454	58936	71.008409992424	0.625
14454	59221	71.310496179929	0.75
14454	59357	71.428780877415	0.75
14454	60478	72.235042086639	0
14454	61676	73.135042086639	0
14454	61931	73.344000997778	0.875
14454	62644	73.846175010501	0.5
14454	62672	73.890546122402	0.5
14454	62800	73.993902362332	0.875
14454	63021	74.20219986673	0.875
14454	63083	74.251547376079	0.625
14454	63104	74.257220700407	1
14454	63425	74.557220700407	0.75
14454	64015	75.058647313263	0.5
14454	64052	75.066234495863	0.5
14454	64292	75.263427539107	0.75
14454	64752	75.565184134519	0.75
14454	65141	75.87488972142	0.625
14454	65342	76.07488972142	0.875
14454	66392	76.91153556738	-0.125
14454	66819	77.31153556738	0.625
14454	67930	78.420799629192	-0.125
14454	68449	78.826082953536	0.5
14454	68739	79.126082953536	0.75
14454	69148	79.536008492936	0.625
14454	69422	79.744705793153	0.875
14454	69738	79.946495994135	0.75
14454	70410	80.548997186956	0.375
14454	70629	80.749174671615	0.875
14454	71165	81.149866557603	0.5
14454	72273	82.149866557603	-0.125
14454	72509	82.357684085098	0.875
14454	72968	82.760625226424	0.625
14454	73074	82.864472884471	0.75
14454	73241	82.968693811633	0.875
14454	73896	83.468693811633	0.5
14454	74300	83.772968383743	0.75
14454	74655	84.045423325044	0.875
14454	75533	84.745423325044	0.25
14454	75984	85.054559285468	0.375
14454	76029	85.103364186054	0.625
14454	76173	85.227582749672	0.625
14454	76191	85.257624883232	0.875
14454	76444	85.535440228107	0.75
14454	78048	86.943705427726	-1
14454	78863	87.543705427726	0.25
14454	80181	88.652264591057	-0.5
14454	80847	89.160253358811	0.5
14454	81113	89.388525912175	0.875
14454	81321	89.609535953308	0.875
14454	81679	89.909777199268	0.625
14454	83560	91.412972010431	0.125
14454	84684	92.316081347145	-0.125
14454	85144	92.719963632606	0.5
14454	85527	93.027514507077	0.75
14454	85535	93.036580917821	0.75
14454	87475	94.546467364164	-0.875
14454	88127	95.046467364164	0.5
14454	89241	96.051415247003	-0.125
14454	89321	96.107753055067	-0.125
14454	89549	96.317100292225	0.75
14454	89988	96.717100292225	0.625
14454	90658	97.325657497562	0.375
14454	90856	97.430262811421	0.75
14454	91538	97.974459275972	0.875
14454	91775	98.174459275972	0.875
14454	91794	98.177613510812	1
14454	92465	98.777613510812	0.375
14454	93101	99.282337279754	0.5
14454	93228	99.390766914447	0.5
14454	93314	99.468578116804	0.5
14454	93464	99.570257920461	0.875
14454	93965	100.070257920461	0.5
14454	94443	100.576410510473	0.5
14454	94918	100.983898191669	0.5
14454	95070	101.101910451993	0.375
14454	95090	101.128118743122	0.5
14454	95105	101.130114354988	1
14454	95697	101.586735001234	0.625
14454	96607	102.288917077065	0
14454	97596	103.145497444864	0.25
14454	97620	103.188917077065	0
14454	97875	103.389971000954	0.875
14454	98566	103.896849507235	0.375
14454	99847	104.896849507235	-0.125
14454	100335	105.504770950343	0.375
14454	100978	106.110404343277	0.375
14454	101849	106.823793661796	0.125
14454	102318	107.127914069476	0.625
14454	103010	107.627914069476	0.5
14454	103458	108.128198712488	0.5
14454	103912	108.528357448323	0.375
14454	104809	109.228357448323	0.25
14454	105124	109.535969388048	0.75
14454	105961	110.336656647337	0.625
14454	106304	110.644286343847	0.625
14454	107431	111.544286343847	-0.375
14454	107444	111.556178921193	0.375
14454	107919	111.967014557282	0.75
14454	108280	112.257172052007	0.25
14454	108356	112.283377600795	0.625
14454	108831	112.683691281002	0.5
14454	109582	113.383691281002	0.25
14454	109903	113.687968288397	0.75
14454	109910	113.690438613284	0.75
14454	109992	113.791033736445	0.75
14454	110343	114.191133736455	0.5
14454	112243	115.791133736455	-1
14454	112792	116.2099237028	0.5
14454	113182	116.518650387511	0.625
14454	113231	116.536055924221	0.75
14454	113421	116.724625583206	0.875
14454	113669	116.925742166956	0.75
14454	114019	117.225742166956	0.625
14454	114490	117.62650196191	0.625
14454	114989	118.029565679613	0.625
14454	115338	118.323688577438	0.75
14454	115755	118.626024986637	0.375
14454	115897	118.727827852449	0.875
14454	116524	119.327827852449	0.375
14454	116804	119.630771222078	0.75
14454	117030	119.833363067114	0.875
14454	117067	119.843258971253	1
14454	117394	120.143258971253	0.625
14454	117810	120.553067121508	0.625
14454	118166	120.86167697305	0.75
14454	118578	121.261679164985	0.5
14454	118865	121.56181727873	0.625
14454	119200	121.863844633247	0.75
14454	119477	122.084958068682	0.875
14454	120225	122.685410027004	0.25
14454	121096	123.485410027004	0.125
14454	121818	124.190394289035	0.25
14454	122040	124.396390997751	0.875
14454	123134	125.201508011806	0.125
14454	123823	125.801608011816	0.25
14454	124259	126.211786086542	0.625
14454	124770	126.63172352124	0.625
14454	125013	126.839012095917	0.75
14454	125530	127.242584379951	0.625
14454	125815	127.446757425288	0.375
14454	125818	127.448058735271	0.625
14454	125825	127.457222939938	0.875
14454	125980	127.564770081575	0.875
14454	126419	127.864770081575	0.75
14454	126824	128.170407584387	0.75
14454	127052	128.377321555756	0.75
14454	127289	128.579941025816	0.5
14454	127570	128.83527241694	0.375
14454	127593	128.840886048822	0.125
14454	127980	129.142761569654	0.625
14454	128521	129.542761569654	0.625
14454	129062	129.929752797925	0.625
14454	129093	129.944660883776	0.625
14454	129666	130.345520978758	0.5
14454	130564	130.928450874789	0.625
14454	131144	131.428450874789	0.5
14454	131964	132.032922578647	0.25
14454	132170	132.241815652583	0.875
14454	132312	132.384442999004	0.375
14454	132767	132.793168319266	0.5
14454	133451	133.393168319266	0.375
14454	134462	134.186065724135	0.625
14454	134747	134.395595431318	-0.25
14454	135041	134.690821702281	0.5
14455	134	20.10000000001	0.1
14455	394	20.50000000001	0.4
14455	1120	21.40020000024	0.4
14455	1639	21.90020000024	0.5
14455	1847	22.104468816982	0.2
14455	2614	22.813831193016	0.7
14455	3663	23.722722224058	0.9
14455	3716	23.810844115012	0.9
14455	4143	24.215125755676	1.4
14455	4199	24.22701487828	0.5
14455	4296	24.32600368478	0.5
14455	4526	24.528408274245	0.2
14455	5303	25.228408274245	0.7
14455	5685	25.534578357385	0.3
14455	6566	26.140940030703	0.6
14455	6819	26.346841621267	0.2
14455	6964	26.456845363941	0.5
14455	7665	27.056945363951	0.6
14455	7883	27.256945363951	0.2
14455	8407	27.658335466223	0.4
14455	9315	28.358435466233	0.7
14455	9824	28.758435466233	0.4
14455	10075	28.958558958805	0.2
14455	10601	29.359036624833	0.4
14455	11894	30.462261556346	1.1
14455	12421	30.876648014527	0.4
14455	12657	31.07877490271	0.2
14455	13120	31.480555954471	0.4
14455	13137	31.485762374468	0.4
14455	13352	31.69327509689	0.2
14455	13476	31.881312566381	0.4
14455	13505	31.89036226421	0.3
14455	13552	31.912112259131	0.2
14455	13810	32.165243082034	1
14455	14952	33.166710481717	1
14455	16162	34.166710481717	1
14455	16502	34.472828037879	0.3
14455	16953	34.882178387025	0.4
14455	17114	34.987256525024	0.1
14455	17959	35.687256525024	0.7
14455	18958	36.59711941257	0.9
14455	19690	37.302925431858	0.7
14455	20335	37.902925431858	0.6
14455	21175	38.614133855096	0.7
14455	21559	39.016004162963	0.4
14455	21809	39.216004162963	0.2
14455	22760	40.019283934616	0.8
14455	22881	40.125171263733	0.1
14455	23441	40.589997110278	0.1
14455	24155	41.189997110278	0.6
14455	24526	41.474522432198	0.2
14455	25059	41.976130642862	0.5
14455	25103	41.999713022682	0.8
14455	25309	42.206809132083	0.2
14455	25939	42.813678970023	0.6
14455	26484	43.313678970023	0.5
14455	26979	43.813778970033	0.5
14455	27236	44.014918112581	0.2
14455	27614	44.419096621755	0.4
14455	27833	44.621319464021	0.2
14455	28667	45.297095328295	0.3
14455	28718	45.329628419844	0.7
14455	29675	46.138420311222	0.8
14455	30011	46.438420311222	0.3
14455	30641	46.938717870374	0.5
14455	30658	46.944997242351	0.5
14455	31077	47.245283002915	0.3
14455	31084	47.246710137284	0.3
14455	31104	47.25374388165	0.3
14455	31618	47.659237850861	0.4
14455	31638	47.676247222843	0.4
14455	32672	48.480045376767	0.8
14455	33179	48.880045376767	0.4
14455	33868	49.470201290256	0.2
14455	33931	49.484787891858	0.6
14455	34196	49.689231730028	0.2
14455	35309	50.660365318118	0.7
14455	35626	50.960365318118	0.3
14455	35910	51.268774139073	0.3
14455	36301	51.570081158662	0.3
14455	36602	51.849574701931	0.3
14455	37209	52.351199182927	0.5
14455	37431	52.551199182927	0.2
14455	37939	53.052026858484	0.5
14455	38161	53.260127004499	0.2
14455	38182	53.266813925786	0
14455	38806	53.866813925786	0.6
14455	40002	54.914051356371	0.3
14455	40919	55.614151356381	0.7
14455	41282	55.914151356381	0.3
14455	41668	56.218221711602	0.3
14455	41706	56.246635713629	0.3
14455	41816	56.356574799379	0.1
14455	42047	56.556574799379	0.2
14455	42293	56.760945212408	0.2
14455	43435	57.769443990609	1
14455	43829	58.069443990609	0.3
14455	44094	58.274071475493	0.2
14455	44487	58.586049668445	0.1
14455	45313	59.386049668445	0.8
14455	45671	59.696669098736	0.7
14455	45798	59.80415010274	0.1
14455	46437	60.30415010274	0.5
14455	48274	61.81187810649	0.7
14455	49044	62.51187810649	0.7
14455	49890	63.213967366188	0.7
14455	50685	63.932829986943	0.5
14455	51068	64.228124493554	1
14455	51095	64.230400287535	0
14455	51495	64.530400287535	0.3
14455	51864	64.830755133629	0.3
14455	52663	65.537765858185	0.7
14455	52830	65.737765858185	0.2
14455	53400	66.245246336553	0.5
14455	53570	66.377572928053	0.3
14455	54341	67.085616829894	0.7
14455	54697	67.385616829894	0.3
14455	54926	67.58877828923	0.2
14455	55400	67.98887828924	0.4
14455	55894	68.38887828924	0.4
14455	56597	68.89218378597	0.5
14455	56934	69.19218378597	0.3
14455	57154	69.39228378598	0.2
14455	57916	69.99228378598	0.6
14455	58582	70.601744763016	0.6
14455	58936	71.008409992424	0.4
14455	59221	71.310496179929	0.3
14455	59357	71.428780877415	0.3
14455	60478	72.235042086639	0.8
14455	61676	73.135042086639	0.9
14455	61931	73.344000997778	0.2
14455	62644	73.846175010501	0.5
14455	62672	73.890546122402	0.5
14455	62800	73.993902362332	0.1
14455	63021	74.20219986673	0.2
14455	63083	74.251547376079	0.4
14455	63104	74.257220700407	0
14455	63425	74.557220700407	0.3
14455	64015	75.058647313263	0.5
14455	64052	75.066234495863	0.5
14455	64292	75.263427539107	0.3
14455	64752	75.565184134519	0.3
14455	65141	75.87488972142	0.3
14455	65342	76.07488972142	0.2
14455	66392	76.91153556738	0.8
14455	66819	77.31153556738	0.4
14455	67930	78.420799629192	1
14455	68449	78.826082953536	0.4
14455	68739	79.126082953536	0.3
14455	69148	79.536008492936	0.4
14455	69422	79.744705793153	0.2
14455	69738	79.946495994135	0.2
14455	70410	80.548997186956	0.6
14455	70629	80.749174671615	0.2