version 2
run Stability-64-20130526-18:51:20-1898
attr configname Stability
attr datetime 20130526-18:51:20
attr experiment Stability
attr inifile omnetpp.ini
attr iterationvars $0=1e0
attr iterationvars2 "$0=1e0, $repetition=4"
attr measurement $0=1e0
attr network Network
attr processid 1898
attr repetition 4
attr replication #4
attr resultdir results
attr runnumber 64
attr seedset 64

vector 6304  Network.churner  inGoingSizeSig:vector  ETV
vector 6232  Network.dyn_peer[8]  lookupHopsSig:vector  ETV
vector 6233  Network.dyn_peer[8]  lookupStabilitySig:vector  ETV
vector 6234  Network.dyn_peer[8]  lookupTimeSig:vector  ETV
vector 6250  Network.dyn_peer[14]  lookupHopsSig:vector  ETV
vector 6251  Network.dyn_peer[14]  lookupStabilitySig:vector  ETV
vector 6252  Network.dyn_peer[14]  lookupTimeSig:vector  ETV
vector 6259  Network.dyn_peer[17]  lookupHopsSig:vector  ETV
vector 6260  Network.dyn_peer[17]  lookupStabilitySig:vector  ETV
vector 6261  Network.dyn_peer[17]  lookupTimeSig:vector  ETV
vector 6208  Network.dyn_peer[0]  lookupHopsSig:vector  ETV
vector 6209  Network.dyn_peer[0]  lookupStabilitySig:vector  ETV
vector 6210  Network.dyn_peer[0]  lookupTimeSig:vector  ETV
vector 6211  Network.dyn_peer[1]  lookupHopsSig:vector  ETV
vector 6212  Network.dyn_peer[1]  lookupStabilitySig:vector  ETV
vector 6213  Network.dyn_peer[1]  lookupTimeSig:vector  ETV
vector 6217  Network.dyn_peer[3]  lookupHopsSig:vector  ETV
vector 6218  Network.dyn_peer[3]  lookupStabilitySig:vector  ETV
vector 6219  Network.dyn_peer[3]  lookupTimeSig:vector  ETV
vector 6235  Network.dyn_peer[9]  lookupHopsSig:vector  ETV
vector 6236  Network.dyn_peer[9]  lookupStabilitySig:vector  ETV
vector 6237  Network.dyn_peer[9]  lookupTimeSig:vector  ETV
vector 6238  Network.dyn_peer[10]  lookupHopsSig:vector  ETV
vector 6239  Network.dyn_peer[10]  lookupStabilitySig:vector  ETV
vector 6240  Network.dyn_peer[10]  lookupTimeSig:vector  ETV
vector 6244  Network.dyn_peer[12]  lookupHopsSig:vector  ETV
vector 6245  Network.dyn_peer[12]  lookupStabilitySig:vector  ETV
vector 6246  Network.dyn_peer[12]  lookupTimeSig:vector  ETV
vector 6253  Network.dyn_peer[15]  lookupHopsSig:vector  ETV
vector 6254  Network.dyn_peer[15]  lookupStabilitySig:vector  ETV
vector 6255  Network.dyn_peer[15]  lookupTimeSig:vector  ETV
vector 6268  Network.dyn_peer[20]  lookupHopsSig:vector  ETV
vector 6269  Network.dyn_peer[20]  lookupStabilitySig:vector  ETV
vector 6270  Network.dyn_peer[20]  lookupTimeSig:vector  ETV
vector 6289  Network.dyn_peer[27]  lookupHopsSig:vector  ETV
vector 6290  Network.dyn_peer[27]  lookupStabilitySig:vector  ETV
vector 6291  Network.dyn_peer[27]  lookupTimeSig:vector  ETV
vector 6298  Network.dyn_peer[30]  lookupHopsSig:vector  ETV
vector 6299  Network.dyn_peer[30]  lookupStabilitySig:vector  ETV
vector 6300  Network.dyn_peer[30]  lookupTimeSig:vector  ETV
vector 6220  Network.dyn_peer[4]  lookupHopsSig:vector  ETV
vector 6221  Network.dyn_peer[4]  lookupStabilitySig:vector  ETV
vector 6222  Network.dyn_peer[4]  lookupTimeSig:vector  ETV
vector 6223  Network.dyn_peer[5]  lookupHopsSig:vector  ETV
vector 6224  Network.dyn_peer[5]  lookupStabilitySig:vector  ETV
vector 6225  Network.dyn_peer[5]  lookupTimeSig:vector  ETV
vector 6229  Network.dyn_peer[7]  lookupHopsSig:vector  ETV
vector 6230  Network.dyn_peer[7]  lookupStabilitySig:vector  ETV
vector 6231  Network.dyn_peer[7]  lookupTimeSig:vector  ETV
vector 6241  Network.dyn_peer[11]  lookupHopsSig:vector  ETV
vector 6242  Network.dyn_peer[11]  lookupStabilitySig:vector  ETV
vector 6243  Network.dyn_peer[11]  lookupTimeSig:vector  ETV
vector 6247  Network.dyn_peer[13]  lookupHopsSig:vector  ETV
vector 6248  Network.dyn_peer[13]  lookupStabilitySig:vector  ETV
vector 6249  Network.dyn_peer[13]  lookupTimeSig:vector  ETV
vector 6274  Network.dyn_peer[22]  lookupHopsSig:vector  ETV
vector 6275  Network.dyn_peer[22]  lookupStabilitySig:vector  ETV
vector 6276  Network.dyn_peer[22]  lookupTimeSig:vector  ETV
vector 6277  Network.dyn_peer[23]  lookupHopsSig:vector  ETV
vector 6278  Network.dyn_peer[23]  lookupStabilitySig:vector  ETV
vector 6279  Network.dyn_peer[23]  lookupTimeSig:vector  ETV
vector 6226  Network.dyn_peer[6]  lookupHopsSig:vector  ETV
vector 6227  Network.dyn_peer[6]  lookupStabilitySig:vector  ETV
vector 6228  Network.dyn_peer[6]  lookupTimeSig:vector  ETV
vector 6256  Network.dyn_peer[16]  lookupHopsSig:vector  ETV
vector 6257  Network.dyn_peer[16]  lookupStabilitySig:vector  ETV
vector 6258  Network.dyn_peer[16]  lookupTimeSig:vector  ETV
vector 6265  Network.dyn_peer[19]  lookupHopsSig:vector  ETV
vector 6266  Network.dyn_peer[19]  lookupStabilitySig:vector  ETV
vector 6267  Network.dyn_peer[19]  lookupTimeSig:vector  ETV
vector 6280  Network.dyn_peer[24]  lookupHopsSig:vector  ETV
vector 6281  Network.dyn_peer[24]  lookupStabilitySig:vector  ETV
vector 6282  Network.dyn_peer[24]  lookupTimeSig:vector  ETV
vector 6283  Network.dyn_peer[25]  lookupHopsSig:vector  ETV
vector 6284  Network.dyn_peer[25]  lookupStabilitySig:vector  ETV
vector 6285  Network.dyn_peer[25]  lookupTimeSig:vector  ETV
vector 6295  Network.dyn_peer[29]  lookupHopsSig:vector  ETV
vector 6296  Network.dyn_peer[29]  lookupStabilitySig:vector  ETV
vector 6297  Network.dyn_peer[29]  lookupTimeSig:vector  ETV
vector 6214  Network.dyn_peer[2]  lookupHopsSig:vector  ETV
vector 6215  Network.dyn_peer[2]  lookupStabilitySig:vector  ETV
vector 6216  Network.dyn_peer[2]  lookupTimeSig:vector  ETV
vector 6262  Network.dyn_peer[18]  lookupHopsSig:vector  ETV
vector 6263  Network.dyn_peer[18]  lookupStabilitySig:vector  ETV
vector 6264  Network.dyn_peer[18]  lookupTimeSig:vector  ETV
vector 6271  Network.dyn_peer[21]  lookupHopsSig:vector  ETV
vector 6272  Network.dyn_peer[21]  lookupStabilitySig:vector  ETV
vector 6273  Network.dyn_peer[21]  lookupTimeSig:vector  ETV
vector 6292  Network.dyn_peer[28]  lookupHopsSig:vector  ETV
vector 6293  Network.dyn_peer[28]  lookupStabilitySig:vector  ETV
vector 6294  Network.dyn_peer[28]  lookupTimeSig:vector  ETV
vector 6301  Network.dyn_peer[31]  lookupHopsSig:vector  ETV
vector 6302  Network.dyn_peer[31]  lookupStabilitySig:vector  ETV
vector 6303  Network.dyn_peer[31]  lookupTimeSig:vector  ETV
vector 6286  Network.dyn_peer[26]  lookupHopsSig:vector  ETV
vector 6287  Network.dyn_peer[26]  lookupStabilitySig:vector  ETV
vector 6288  Network.dyn_peer[26]  lookupTimeSig:vector  ETV
6208	134	20.101	1
6208	508	20.701	5
6208	939	21.306300534074	5
6208	1406	21.706963519729	3
6208	1696	21.915191165961	1
6208	2206	22.327691387158	3
6208	2481	22.542141884044	3
6208	3204	23.143312049624	5
6208	3474	23.34677195316	2
6208	3821	23.64677195316	2
6208	4277	24.04787195316	4
6208	5504	25.04787195316	9
6208	6062	25.554704104402	5
6208	6115	25.568067976667	4
6208	6136	25.578233971087	7
6208	7458	26.782076289595	13
6208	8322	27.482076289595	6
6208	8344	27.493998605439	4
6208	8902	28.002466210652	6
6208	9702	28.762811384339	4
6208	9780	28.802466210652	8
6208	9814	28.86157818132	3
6208	11853	30.371573927195	17
6208	12387	30.771573927195	3
6208	12803	31.100977725269	2
6208	13025	31.281235654845	5
6208	13449	31.689997392843	3
6208	13596	31.802039295028	6
6208	14417	32.506874805869	7
6208	14897	32.924227411391	3
6208	15996	33.869150721392	4
6208	17228	35.069150721392	12
6208	17243	35.070250721392	0
6208	17715	35.470250721392	4
6208	18667	36.196777312985	6
6208	18673	36.196877312985	6
6208	19974	37.097877312985	10
6208	20295	37.401978505605	2
6208	20551	37.604494676213	2
6208	20882	37.904494676213	2
6208	21399	38.412542870696	4
6208	21754	38.712748569552	2
6208	21967	38.922252912692	1
6208	22476	39.332652230476	4
6208	23150	39.832652230476	4
6208	23727	40.340044360361	5
6208	23937	40.547438198234	1
6208	24033	40.698223229195	1
6208	25011	41.403190572109	8
6208	26272	42.403190572109	10
6208	26331	42.430301744702	5
6208	26636	42.706094039572	2
6208	26838	42.839292205236	3
6208	27219	43.132304878874	4
6208	27307	43.207503075623	4
6208	27500	43.339812014213	4
6208	27931	43.645956496549	3
6208	28602	44.145956496549	4
6208	28708	44.234866013341	1
6208	28975	44.448385043045	2
6208	29390	44.759001934653	3
6208	29979	45.259001934653	4
6208	30138	45.360101934653	1
6208	30330	45.560101934653	1
6208	30843	45.97348923554	4
6208	31024	46.151810100291	3
6208	31178	46.286455323972	2
6208	31367	46.459018408241	2
6208	31394	46.465939718849	2
6208	31691	46.667235996988	2
6208	32493	47.267235996988	5
6208	32801	47.570953816267	2
6208	33336	48.177972900103	6
6208	33778	48.577972900103	5
6208	34208	48.882648547521	2
6208	34951	49.391450573226	5
6208	36117	50.491450573226	10
6208	37160	51.414214370759	8
6208	37209	51.492744786039	11
6208	37514	51.795320542282	3
6208	37660	51.904020336131	3
6208	37970	52.127827283805	12
6208	38494	52.595573495907	8
6208	38532	52.618087749633	14
6208	38689	52.735228848038	8
6208	38733	52.807175380224	10
6208	38930	52.948752728867	2
6208	38962	52.995109240768	2
6208	38990	53.01073262287	1
6208	39030	53.021292586038	0
6208	39221	53.221292586038	1
6208	40356	54.126507190489	9
6208	41415	54.91919421979	5
6208	41584	55.01919421979	0
6208	42592	55.925490106053	8
6208	43044	56.332023509552	3
6208	43052	56.344052229702	3
6208	43403	56.653991770041	3
6208	44383	57.353991770041	6
6208	45142	58.057450064824	7
6208	45433	58.366154125109	2
6208	45987	58.849945496119	12
6208	46251	59.058838726202	2
6208	46843	59.558838726202	4
6208	47216	59.859938726202	3
6208	47868	60.359938726202	4
6208	48253	60.663411340995	2
6208	48865	61.081082966367	3
6208	49721	61.781182938693	2
6208	49925	61.981082966367	8
6208	49962	61.986316969756	0
6208	50347	62.386316969756	3
6208	50455	62.500653902378	3
6208	50665	62.701753902378	2
6208	51526	63.501753902378	8
6208	52046	63.911450750602	3
6208	52360	64.218150178398	2
6208	52670	64.51944040709	2
6208	52941	64.712448157933	1
6208	53068	64.824173038418	2
6208	53598	65.225340998262	5
6208	53887	65.425340998262	1
6208	54043	65.556187689113	1
6208	54244	65.753603705498	3
6208	54711	66.23928986423	7
6208	56260	67.545321759595	15
6208	56665	67.945321759595	3
6208	58046	69.051398138894	11
6208	58521	69.352498138894	3
6208	58791	69.568663685649	1
6208	59488	70.112407365192	1
6208	59548	70.175463035082	5
6208	60064	70.581749613031	4
6208	60821	71.181749613031	6
6208	61715	71.890039452551	7
6208	62043	72.197113208376	2
6208	63023	72.906805930337	7
6208	63357	73.206805930337	2
6208	63748	73.508545183979	4
6208	65172	74.608545183979	11
6208	65471	74.818478706648	2
6208	65495	74.823304419501	0
6208	65887	75.123304419501	2
6208	66211	75.423532710016	2
6208	66531	75.726722162499	2
6208	66609	75.798829591469	3
6208	66699	75.83320306072	2
6208	66857	75.937831120585	1
6208	67388	76.401708371177	1
6208	67609	76.610081747111	1
6208	68574	77.511181747111	9
6208	69475	78.310411497015	4
6208	69477	78.311181747111	8
6208	70418	79.216975278102	10
6208	71842	80.416975278102	11
6208	72183	80.731069569837	2
6208	73029	81.435001457544	7
6208	73906	82.135001457544	6
6208	74918	83.039142230517	9
6208	75246	83.360993999945	2
6208	75607	83.661629909953	2
6208	75626	83.679231653595	2
6208	76197	84.081302008034	4
6208	76831	84.681302008034	5
6208	77563	85.284037883408	5
6208	78514	86.080814445721	5
6208	78526	86.092991501696	7
6208	79278	86.702100515178	6
6208	79548	86.902100515178	2
6208	80180	87.41185664326	4
6208	80993	88.219176019384	7
6208	81500	88.652504547563	3
6208	81752	88.866707162775	3
6208	82481	89.575249686053	8
6208	83071	90.075249686053	5
6208	84018	90.881561058476	8
6208	84544	91.383978967222	5
6208	84809	91.599602923059	6
6208	85017	91.785486520875	3
6208	86164	92.69203046217	8
6208	86189	92.700888143657	10
6208	86198	92.704239185665	10
6208	86644	93.008193993989	3
6208	86932	93.208193993989	1
6208	87410	93.617226845553	3
6208	87653	93.828806521883	1
6208	88015	94.137228674266	2
6208	89155	94.938328674266	10
6208	89650	95.338328674266	3
6208	90069	95.718728181972	3
6208	90155	95.750464456853	2
6208	90384	95.94650998753	5
6208	91158	96.607001069813	11
6208	91360	96.719309594801	9
6208	91374	96.722466382794	9
6208	91417	96.755461275131	9
6208	91463	96.819006996899	1
6208	91642	96.9564573862	9
6208	91729	97.031595494235	1
6208	92486	97.841243906248	9
6208	92795	98.141243906248	2
6208	93773	98.953165511061	8
6208	94127	99.255418936603	2
6208	94242	99.352635893961	2
6208	94349	99.457943665216	2
6208	94483	99.559043665216	1
6208	96275	101.073934226825	2
6208	96367	101.159043665216	17
6208	97007	101.661832395567	5
6208	97344	101.961832395567	2
6208	97545	102.163447584191	1
6208	97771	102.368134354828	1
6208	98040	102.672480736202	2
6208	98085	102.690000777244	2
6208	98459	102.991100777244	3
6208	99509	103.791100777244	9
6208	99774	103.998462098991	1
6208	100104	104.317676316728	2
6208	100638	104.822653123633	5
6208	100999	105.122653123633	2
6208	101313	105.425765035824	2
6208	101490	105.632216499327	1
6208	101859	105.934336123721	4
6208	102367	106.334336123721	3
6208	102822	106.741717828536	3
6208	103290	107.14620006446	3
6208	103446	107.286267041004	3
6208	103793	107.587367041004	3
6208	104207	107.987367041004	3
6208	104756	108.495581180788	5
6208	104800	108.545679425245	4
6208	105121	108.854111881599	3
6208	106183	109.754111881599	9
6208	106521	109.960558945157	1
6208	106980	110.27086490976	3
6208	107221	110.47086490976	1
6208	108243	111.171640750619	7
6208	108280	111.202525638572	6
6208	109225	112.011633080862	8
6208	109251	112.025614796028	7
6208	109325	112.081562646436	8
6208	110465	112.987024765301	9
6208	110814	113.287024765301	2
6208	111054	113.488124765301	2
6208	111851	114.188124765301	8
6208	113473	115.397140377058	11
6208	114211	115.897192354871	4
6208	114226	115.907560592801	2
6208	114620	116.214178306552	3
6208	115446	117.014178306552	7
6208	116087	117.622583359995	5
6208	116765	118.230015267215	6
6208	117145	118.539660174175	2
6208	117325	118.670664653257	1
6208	117617	118.87838876251	2
6208	117913	119.07838876251	1
6208	118549	119.584395136205	5
6208	119190	119.990045375034	4
6208	120741	121.190045375034	12
6208	121414	121.694821301851	5
6208	122069	122.212952954302	5
6208	122461	122.539856028212	2
6208	122847	122.944533826686	4
6208	123308	123.344533826686	3
6208	124592	124.366121180801	10
6208	124990	124.668310133239	2
6208	124992	124.668356758612	2
6208	125784	125.369410133239	7
6208	126561	125.969410133239	5
6208	127159	126.478772980878	5
6208	127539	126.783143043807	4
6208	127561	126.78516944207	2
6208	127575	126.789722460948	2
6208	128523	127.575142547655	5
6208	128567	127.589780484868	7
6208	128712	127.696375491842	1
6208	128895	127.896375491842	1
6208	129577	128.597475491842	7
6208	130007	128.997475491842	3
6208	130957	129.904130614028	8
6208	131408	130.320575398904	6
6208	131496	130.406481702535	4
6208	132104	130.916798521002	5
6208	132481	131.216798521002	2
6208	132807	131.417888982974	2
6208	133007	131.618032244809	1
6208	134204	132.41914102654	10
6208	134991	133.058987752194	3
6208	135342	133.358987752194	2
6208	135753	133.759562389908	3
6208	136125	134.069198745029	2
6208	136168	134.139722183168	5
6208	136711	134.645597104901	6
6208	136762	134.658015740749	5
6208	137025	134.858180782038	1
6208	137712	135.366512900589	6
6208	138773	136.466512900589	10
6208	139653	137.369603050519	9
6208	139999	137.810813144113	4
6208	140062	137.972718208625	8
6208	140123	138.120764979145	2
6209	134	20.101	0.875
6209	508	20.701	0.375
6209	939	21.306300534074	0.375
6209	1406	21.706963519729	0.625
6209	1696	21.915191165961	0.875
6209	2206	22.327691387158	0.625
6209	2481	22.542141884044	0.625
6209	3204	23.143312049624	0.375
6209	3474	23.34677195316	0.75
6209	3821	23.64677195316	0.75
6209	4277	24.04787195316	0.5
6209	5504	25.04787195316	-0.125
6209	6062	25.554704104402	0.375
6209	6115	25.568067976667	0.5
6209	6136	25.578233971087	0.125
6209	7458	26.782076289595	-0.625
6209	8322	27.482076289595	0.25
6209	8344	27.493998605439	0.5
6209	8902	28.002466210652	0.25
6209	9702	28.762811384339	0.5
6209	9780	28.802466210652	0
6209	9814	28.86157818132	0.625
6209	11853	30.371573927195	-1.125
6209	12387	30.771573927195	0.625
6209	12803	31.100977725269	0.75
6209	13025	31.281235654845	0.375
6209	13449	31.689997392843	0.625
6209	13596	31.802039295028	0.25
6209	14417	32.506874805869	0.125
6209	14897	32.924227411391	0.625
6209	15996	33.869150721392	0.5
6209	17228	35.069150721392	-0.5
6209	17243	35.070250721392	1
6209	17715	35.470250721392	0.5
6209	18667	36.196777312985	0.25
6209	18673	36.196877312985	0.33333331346512
6209	19974	37.097877312985	-0.25
6209	20295	37.401978505605	0.75
6209	20551	37.604494676213	0.75
6209	20882	37.904494676213	0.75
6209	21399	38.412542870696	0.5
6209	21754	38.712748569552	0.75
6209	21967	38.922252912692	0.875
6209	22476	39.332652230476	0.5
6209	23150	39.832652230476	0.5
6209	23727	40.340044360361	0.375
6209	23937	40.547438198234	0.875
6209	24033	40.698223229195	0.875
6209	25011	41.403190572109	0
6209	26272	42.403190572109	-0.25
6209	26331	42.430301744702	0.375
6209	26636	42.706094039572	0.75
6209	26838	42.839292205236	0.625
6209	27219	43.132304878874	0.5
6209	27307	43.207503075623	0.5
6209	27500	43.339812014213	0.5
6209	27931	43.645956496549	0.625
6209	28602	44.145956496549	0.5
6209	28708	44.234866013341	0.875
6209	28975	44.448385043045	0.75
6209	29390	44.759001934653	0.625
6209	29979	45.259001934653	0.5
6209	30138	45.360101934653	0.875
6209	30330	45.560101934653	0.875
6209	30843	45.97348923554	0.5
6209	31024	46.151810100291	0.625
6209	31178	46.286455323972	0.75
6209	31367	46.459018408241	0.75
6209	31394	46.465939718849	0.75
6209	31691	46.667235996988	0.75
6209	32493	47.267235996988	0.375
6209	32801	47.570953816267	0.75
6209	33336	48.177972900103	0.25
6209	33778	48.577972900103	0.375
6209	34208	48.882648547521	0.75
6209	34951	49.391450573226	0.375
6209	36117	50.491450573226	-0.25
6209	37160	51.414214370759	0
6209	37209	51.492744786039	-0.375
6209	37514	51.795320542282	0.625
6209	37660	51.904020336131	0.625
6209	37970	52.127827283805	-0.5
6209	38494	52.595573495907	0
6209	38532	52.618087749633	-0.75
6209	38689	52.735228848038	0
6209	38733	52.807175380224	-0.25
6209	38930	52.948752728867	0.75
6209	38962	52.995109240768	0.75
6209	38990	53.01073262287	0.875
6209	39030	53.021292586038	1
6209	39221	53.221292586038	0.875
6209	40356	54.126507190489	-0.125
6209	41415	54.91919421979	0.375
6209	41584	55.01919421979	1
6209	42592	55.925490106053	0
6209	43044	56.332023509552	0.625
6209	43052	56.344052229702	0.625
6209	43403	56.653991770041	0.625
6209	44383	57.353991770041	0.25
6209	45142	58.057450064824	0.125
6209	45433	58.366154125109	0.75
6209	45987	58.849945496119	-0.5
6209	46251	59.058838726202	0.75
6209	46843	59.558838726202	0.5
6209	47216	59.859938726202	0.625
6209	47868	60.359938726202	0.5
6209	48253	60.663411340995	0.75
6209	48865	61.081082966367	0.625
6209	49721	61.781182938693	0.75
6209	49925	61.981082966367	0
6209	49962	61.986316969756	1
6209	50347	62.386316969756	0.625
6209	50455	62.500653902378	0.625
6209	50665	62.701753902378	0.75
6209	51526	63.501753902378	0
6209	52046	63.911450750602	0.625
6209	52360	64.218150178398	0.75
6209	52670	64.51944040709	0.75
6209	52941	64.712448157933	0.875
6209	53068	64.824173038418	0.75
6209	53598	65.225340998262	0.375
6209	53887	65.425340998262	0.875
6209	54043	65.556187689113	0.875
6209	54244	65.753603705498	0.625
6209	54711	66.23928986423	0.125
6209	56260	67.545321759595	-0.875
6209	56665	67.945321759595	0.625
6209	58046	69.051398138894	-0.375
6209	58521	69.352498138894	0.625
6209	58791	69.568663685649	0.875
6209	59488	70.112407365192	0.875
6209	59548	70.175463035082	0.375
6209	60064	70.581749613031	0.5
6209	60821	71.181749613031	0.25
6209	61715	71.890039452551	0.125
6209	62043	72.197113208376	0.75
6209	63023	72.906805930337	0.125
6209	63357	73.206805930337	0.75
6209	63748	73.508545183979	0.5
6209	65172	74.608545183979	-0.375
6209	65471	74.818478706648	0.75
6209	65495	74.823304419501	1
6209	65887	75.123304419501	0.75
6209	66211	75.423532710016	0.75
6209	66531	75.726722162499	0.75
6209	66609	75.798829591469	0.625
6209	66699	75.83320306072	0.75
6209	66857	75.937831120585	0.875
6209	67388	76.401708371177	0.875
6209	67609	76.610081747111	0.875
6209	68574	77.511181747111	-0.125
6209	69475	78.310411497015	0.5
6209	69477	78.311181747111	0
6209	70418	79.216975278102	-0.25
6209	71842	80.416975278102	-0.375
6209	72183	80.731069569837	0.75
6209	73029	81.435001457544	0.125
6209	73906	82.135001457544	0.25
6209	74918	83.039142230517	-0.125
6209	75246	83.360993999945	0.75
6209	75607	83.661629909953	0.75
6209	75626	83.679231653595	0.75
6209	76197	84.081302008034	0.5
6209	76831	84.681302008034	0.375
6209	77563	85.284037883408	0.375
6209	78514	86.080814445721	0.375
6209	78526	86.092991501696	0.125
6209	79278	86.702100515178	0.25
6209	79548	86.902100515178	0.75
6209	80180	87.41185664326	0.5
6209	80993	88.219176019384	0.125
6209	81500	88.652504547563	0.625
6209	81752	88.866707162775	0.625
6209	82481	89.575249686053	0
6209	83071	90.075249686053	0.375
6209	84018	90.881561058476	0
6209	84544	91.383978967222	0.375
6209	84809	91.599602923059	0.25
6209	85017	91.785486520875	0.625
6209	86164	92.69203046217	0
6209	86189	92.700888143657	-0.25
6209	86198	92.704239185665	-0.25
6209	86644	93.008193993989	0.625
6209	86932	93.208193993989	0.875
6209	87410	93.617226845553	0.625
6209	87653	93.828806521883	0.875
6209	88015	94.137228674266	0.75
6209	89155	94.938328674266	-0.25
6209	89650	95.338328674266	0.625
6209	90069	95.718728181972	0.625
6209	90155	95.750464456853	0.75
6209	90384	95.94650998753	0.375
6209	91158	96.607001069813	-0.375
6209	91360	96.719309594801	-0.125
6209	91374	96.722466382794	-0.125
6209	91417	96.755461275131	-0.125
6209	91463	96.819006996899	0.875
6209	91642	96.9564573862	-0.125
6209	91729	97.031595494235	0.875
6209	92486	97.841243906248	-0.125
6209	92795	98.141243906248	0.75
6209	93773	98.953165511061	0
6209	94127	99.255418936603	0.75
6209	94242	99.352635893961	0.75
6209	94349	99.457943665216	0.75
6209	94483	99.559043665216	0.875
6209	96275	101.073934226825	0.75
6209	96367	101.159043665216	-1.125
6209	97007	101.661832395567	0.375
6209	97344	101.961832395567	0.75
6209	97545	102.163447584191	0.875
6209	97771	102.368134354828	0.875
6209	98040	102.672480736202	0.75
6209	98085	102.690000777244	0.75
6209	98459	102.991100777244	0.625
6209	99509	103.791100777244	-0.125
6209	99774	103.998462098991	0.875
6209	100104	104.317676316728	0.75
6209	100638	104.822653123633	0.375
6209	100999	105.122653123633	0.75
6209	101313	105.425765035824	0.75
6209	101490	105.632216499327	0.875
6209	101859	105.934336123721	0.5
6209	102367	106.334336123721	0.625
6209	102822	106.741717828536	0.625
6209	103290	107.14620006446	0.625
6209	103446	107.286267041004	0.625
6209	103793	107.587367041004	0.625
6209	104207	107.987367041004	0.625
6209	104756	108.495581180788	0.375
6209	104800	108.545679425245	0.5
6209	105121	108.854111881599	0.625
6209	106183	109.754111881599	-0.125
6209	106521	109.960558945157	0.875
6209	106980	110.27086490976	0.625
6209	107221	110.47086490976	0.875
6209	108243	111.171640750619	0.125
6209	108280	111.202525638572	0.25
6209	109225	112.011633080862	0
6209	109251	112.025614796028	0.125
6209	109325	112.081562646436	0
6209	110465	112.987024765301	-0.125
6209	110814	113.287024765301	0.75
6209	111054	113.488124765301	0.75
6209	111851	114.188124765301	0
6209	113473	115.397140377058	-0.375
6209	114211	115.897192354871	0.5
6209	114226	115.907560592801	0.75
6209	114620	116.214178306552	0.625
6209	115446	117.014178306552	0.125
6209	116087	117.622583359995	0.375
6209	116765	118.230015267215	0.25
6209	117145	118.539660174175	0.75
6209	117325	118.670664653257	0.875
6209	117617	118.87838876251	0.75
6209	117913	119.07838876251	0.875
6209	118549	119.584395136205	0.375
6209	119190	119.990045375034	0.5
6209	120741	121.190045375034	-0.5
6209	121414	121.694821301851	0.375
6209	122069	122.212952954302	0.375
6209	122461	122.539856028212	0.75
6209	122847	122.944533826686	0.5
6209	123308	123.344533826686	0.625
6209	124592	124.366121180801	-0.25
6209	124990	124.668310133239	0.75
6209	124992	124.668356758612	0.77777777612209
6209	125784	125.369410133239	0.125
6209	126561	125.969410133239	0.375
6209	127159	126.478772980878	0.375
6209	127539	126.783143043807	0.5
6209	127561	126.78516944207	0.75
6209	127575	126.789722460948	0.75
6209	128523	127.575142547655	0.375
6209	128567	127.589780484868	0.125
6209	128712	127.696375491842	0.875
6209	128895	127.896375491842	0.875
6209	129577	128.597475491842	0.125
6209	130007	128.997475491842	0.625
6209	130957	129.904130614028	0
6209	131408	130.320575398904	0.25
6209	131496	130.406481702535	0.5
6209	132104	130.916798521002	0.375
6209	132481	131.216798521002	0.75
6209	132807	131.417888982974	0.75
6209	133007	131.618032244809	0.875
6209	134204	132.41914102654	-0.25
6209	134991	133.058987752194	0.625
6209	135342	133.358987752194	0.75
6209	135753	133.759562389908	0.625
6209	136125	134.069198745029	0.75
6209	136168	134.139722183168	0.375
6209	136711	134.645597104901	0.25
6209	136762	134.658015740749	0.375
6209	137025	134.858180782038	0.875
6209	137712	135.366512900589	0.25
6209	138773	136.466512900589	-0.25
6209	139653	137.369603050519	-0.125
6209	139999	137.810813144113	0.5
6209	140062	137.972718208625	0
6209	140123	138.120764979145	0.75
6210	134	20.101	0.1
6210	508	20.701	0.6
6210	939	21.306300534074	0.6
6210	1406	21.706963519729	0.4
6210	1696	21.915191165961	0.2
6210	2206	22.327691387158	0.4
6210	2481	22.542141884044	0.4
6210	3204	23.143312049624	0.6
6210	3474	23.34677195316	0.2
6210	3821	23.64677195316	0.3
6210	4277	24.04787195316	0.4
6210	5504	25.04787195316	1
6210	6062	25.554704104402	0.5
6210	6115	25.568067976667	0.5
6210	6136	25.578233971087	0.8
6210	7458	26.782076289595	1.2
6210	8322	27.482076289595	0.7
6210	8344	27.493998605439	0.4
6210	8902	28.002466210652	0.5
6210	9702	28.762811384339	0.4
6210	9780	28.802466210652	0.8
6210	9814	28.86157818132	0.4
6210	11853	30.371573927195	1.5
6210	12387	30.771573927195	0.4
6210	12803	31.100977725269	0.3
6210	13025	31.281235654845	0.5
6210	13449	31.689997392843	0.4
6210	13596	31.802039295028	0.7
6210	14417	32.506874805869	0.7
6210	14897	32.924227411391	0.3
6210	15996	33.869150721392	0.4
6210	17228	35.069150721392	1.2
6210	17243	35.070250721392	0
6210	17715	35.470250721392	0.4
6210	18667	36.196777312985	0.7
6210	18673	36.196877312985	0.7
6210	19974	37.097877312985	0.9
6210	20295	37.401978505605	0.3
6210	20551	37.604494676213	0.2
6210	20882	37.904494676213	0.3
6210	21399	38.412542870696	0.5
6210	21754	38.712748569552	0.3
6210	21967	38.922252912692	0.2
6210	22476	39.332652230476	0.4
6210	23150	39.832652230476	0.5
6210	23727	40.340044360361	0.5
6210	23937	40.547438198234	0.2
6210	24033	40.698223229195	0.2
6210	25011	41.403190572109	0.7
6210	26272	42.403190572109	1
6210	26331	42.430301744702	0.6
6210	26636	42.706094039572	0.3
6210	26838	42.839292205236	0.4
6210	27219	43.132304878874	0.5
6210	27307	43.207503075623	0.5
6210	27500	43.339812014213	0.5
6210	27931	43.645956496549	0.3
6210	28602	44.145956496549	0.5
6210	28708	44.234866013341	0.2
6210	28975	44.448385043045	0.3
6210	29390	44.759001934653	0.3
6210	29979	45.259001934653	0.5
6210	30138	45.360101934653	0.1
6210	30330	45.560101934653	0.2
6210	30843	45.97348923554	0.4
6210	31024	46.151810100291	0.4
6210	31178	46.286455323972	0.3
6210	31367	46.459018408241	0.3
6210	31394	46.465939718849	0.2
6210	31691	46.667235996988	0.2
6210	32493	47.267235996988	0.6
6210	32801	47.570953816267	0.3
6210	33336	48.177972900103	0.6
6210	33778	48.577972900103	0.4
6210	34208	48.882648547521	0.3
6210	34951	49.391450573226	0.5
6210	36117	50.491450573226	1.1
6210	37160	51.414214370759	0.9
6210	37209	51.492744786039	1
6210	37514	51.795320542282	0.3
6210	37660	51.904020336131	0.4
6210	37970	52.127827283805	1.1
6210	38494	52.595573495907	0.8
6210	38532	52.618087749633	1.2
6210	38689	52.735228848038	0.8
6210	38733	52.807175380224	0.9
6210	38930	52.948752728867	0.3
6210	38962	52.995109240768	0.3
6210	38990	53.01073262287	0.2
6210	39030	53.021292586038	0
6210	39221	53.221292586038	0.2
6210	40356	54.126507190489	0.9
6210	41415	54.91919421979	0.4
6210	41584	55.01919421979	0.1
6210	42592	55.925490106053	0.9
6210	43044	56.332023509552	0.4
6210	43052	56.344052229702	0.4
6210	43403	56.653991770041	0.3
6210	44383	57.353991770041	0.7
6210	45142	58.057450064824	0.7
6210	45433	58.366154125109	0.3
6210	45987	58.849945496119	1.2
6210	46251	59.058838726202	0.2
6210	46843	59.558838726202	0.5
6210	47216	59.859938726202	0.3
6210	47868	60.359938726202	0.5
6210	48253	60.663411340995	0.3
6210	48865	61.081082966367	0.3
6210	49721	61.781182938693	0.3
6210	49925	61.981082966367	0.9
6210	49962	61.986316969756	0
6210	50347	62.386316969756	0.4
6210	50455	62.500653902378	0.4
6210	50665	62.701753902378	0.2
6210	51526	63.501753902378	0.8
6210	52046	63.911450750602	0.4
6210	52360	64.218150178398	0.3
6210	52670	64.51944040709	0.3
6210	52941	64.712448157933	0.2
6210	53068	64.824173038418	0.3
6210	53598	65.225340998262	0.4
6210	53887	65.425340998262	0.2
6210	54043	65.556187689113	0.2
6210	54244	65.753603705498	0.3
6210	54711	66.23928986423	0.7
6210	56260	67.545321759595	1.3
6210	56665	67.945321759595	0.4
6210	58046	69.051398138894	1.1
6210	58521	69.352498138894	0.3
6210	58791	69.568663685649	0.2
6210	59488	70.112407365192	0.2
6210	59548	70.175463035082	0.6
6210	60064	70.581749613031	0.4
6210	60821	71.181749613031	0.6
6210	61715	71.890039452551	0.7
6210	62043	72.197113208376	0.3
6210	63023	72.906805930337	0.7
6210	63357	73.206805930337	0.3
6210	63748	73.508545183979	0.3
6210	65172	74.608545183979	1.1
6210	65471	74.818478706648	0.2
6210	65495	74.823304419501	0
6210	65887	75.123304419501	0.3
6210	66211	75.423532710016	0.3
6210	66531	75.726722162499	0.3
6210	66609	75.798829591469	0.4
6210	66699	75.83320306072	0.3
6210	66857	75.937831120585	0.1
6210	67388	76.401708371177	0.2
6210	67609	76.610081747111	0.2
6210	68574	77.511181747111	0.9
6210	69475	78.310411497015	0.5
6210	69477	78.311181747111	0.8
6210	70418	79.216975278102	0.9
6210	71842	80.416975278102	1.2
6210	72183	80.731069569837	0.3
6210	73029	81.435001457544	0.7
6210	73906	82.135001457544	0.7