version 2
run Stability-95-20130526-18:53:28-1898
attr configname Stability
attr datetime 20130526-18:53:28
attr experiment Stability
attr inifile omnetpp.ini
attr iterationvars $0=1e-3
attr iterationvars2 "$0=1e-3, $repetition=5"
attr measurement $0=1e-3
attr network Network
attr processid 1898
attr repetition 5
attr replication #5
attr resultdir results
attr runnumber 95
attr seedset 95

vector 9311  Network.churner  inGoingSizeSig:vector  ETV
vector 9218  Network.dyn_peer[1]  lookupHopsSig:vector  ETV
vector 9219  Network.dyn_peer[1]  lookupStabilitySig:vector  ETV
vector 9220  Network.dyn_peer[1]  lookupTimeSig:vector  ETV
vector 9239  Network.dyn_peer[8]  lookupHopsSig:vector  ETV
vector 9240  Network.dyn_peer[8]  lookupStabilitySig:vector  ETV
vector 9241  Network.dyn_peer[8]  lookupTimeSig:vector  ETV
vector 9248  Network.dyn_peer[11]  lookupHopsSig:vector  ETV
vector 9249  Network.dyn_peer[11]  lookupStabilitySig:vector  ETV
vector 9250  Network.dyn_peer[11]  lookupTimeSig:vector  ETV
vector 9275  Network.dyn_peer[20]  lookupHopsSig:vector  ETV
vector 9276  Network.dyn_peer[20]  lookupStabilitySig:vector  ETV
vector 9277  Network.dyn_peer[20]  lookupTimeSig:vector  ETV
vector 9227  Network.dyn_peer[4]  lookupHopsSig:vector  ETV
vector 9228  Network.dyn_peer[4]  lookupStabilitySig:vector  ETV
vector 9229  Network.dyn_peer[4]  lookupTimeSig:vector  ETV
vector 9245  Network.dyn_peer[10]  lookupHopsSig:vector  ETV
vector 9246  Network.dyn_peer[10]  lookupStabilitySig:vector  ETV
vector 9247  Network.dyn_peer[10]  lookupTimeSig:vector  ETV
vector 9260  Network.dyn_peer[15]  lookupHopsSig:vector  ETV
vector 9261  Network.dyn_peer[15]  lookupStabilitySig:vector  ETV
vector 9262  Network.dyn_peer[15]  lookupTimeSig:vector  ETV
vector 9269  Network.dyn_peer[18]  lookupHopsSig:vector  ETV
vector 9270  Network.dyn_peer[18]  lookupStabilitySig:vector  ETV
vector 9271  Network.dyn_peer[18]  lookupTimeSig:vector  ETV
vector 9272  Network.dyn_peer[19]  lookupHopsSig:vector  ETV
vector 9273  Network.dyn_peer[19]  lookupStabilitySig:vector  ETV
vector 9274  Network.dyn_peer[19]  lookupTimeSig:vector  ETV
vector 9278  Network.dyn_peer[21]  lookupHopsSig:vector  ETV
vector 9279  Network.dyn_peer[21]  lookupStabilitySig:vector  ETV
vector 9280  Network.dyn_peer[21]  lookupTimeSig:vector  ETV
vector 9290  Network.dyn_peer[25]  lookupHopsSig:vector  ETV
vector 9291  Network.dyn_peer[25]  lookupStabilitySig:vector  ETV
vector 9292  Network.dyn_peer[25]  lookupTimeSig:vector  ETV
vector 9308  Network.dyn_peer[31]  lookupHopsSig:vector  ETV
vector 9309  Network.dyn_peer[31]  lookupStabilitySig:vector  ETV
vector 9310  Network.dyn_peer[31]  lookupTimeSig:vector  ETV
vector 9215  Network.dyn_peer[0]  lookupHopsSig:vector  ETV
vector 9216  Network.dyn_peer[0]  lookupStabilitySig:vector  ETV
vector 9217  Network.dyn_peer[0]  lookupTimeSig:vector  ETV
vector 9233  Network.dyn_peer[6]  lookupHopsSig:vector  ETV
vector 9234  Network.dyn_peer[6]  lookupStabilitySig:vector  ETV
vector 9235  Network.dyn_peer[6]  lookupTimeSig:vector  ETV
vector 9236  Network.dyn_peer[7]  lookupHopsSig:vector  ETV
vector 9237  Network.dyn_peer[7]  lookupStabilitySig:vector  ETV
vector 9238  Network.dyn_peer[7]  lookupTimeSig:vector  ETV
vector 9242  Network.dyn_peer[9]  lookupHopsSig:vector  ETV
vector 9243  Network.dyn_peer[9]  lookupStabilitySig:vector  ETV
vector 9244  Network.dyn_peer[9]  lookupTimeSig:vector  ETV
vector 9251  Network.dyn_peer[12]  lookupHopsSig:vector  ETV
vector 9252  Network.dyn_peer[12]  lookupStabilitySig:vector  ETV
vector 9253  Network.dyn_peer[12]  lookupTimeSig:vector  ETV
vector 9254  Network.dyn_peer[13]  lookupHopsSig:vector  ETV
vector 9255  Network.dyn_peer[13]  lookupStabilitySig:vector  ETV
vector 9256  Network.dyn_peer[13]  lookupTimeSig:vector  ETV
vector 9257  Network.dyn_peer[14]  lookupHopsSig:vector  ETV
vector 9258  Network.dyn_peer[14]  lookupStabilitySig:vector  ETV
vector 9259  Network.dyn_peer[14]  lookupTimeSig:vector  ETV
vector 9263  Network.dyn_peer[16]  lookupHopsSig:vector  ETV
vector 9264  Network.dyn_peer[16]  lookupStabilitySig:vector  ETV
vector 9265  Network.dyn_peer[16]  lookupTimeSig:vector  ETV
vector 9281  Network.dyn_peer[22]  lookupHopsSig:vector  ETV
vector 9282  Network.dyn_peer[22]  lookupStabilitySig:vector  ETV
vector 9283  Network.dyn_peer[22]  lookupTimeSig:vector  ETV
vector 9293  Network.dyn_peer[26]  lookupHopsSig:vector  ETV
vector 9294  Network.dyn_peer[26]  lookupStabilitySig:vector  ETV
vector 9295  Network.dyn_peer[26]  lookupTimeSig:vector  ETV
vector 9296  Network.dyn_peer[27]  lookupHopsSig:vector  ETV
vector 9297  Network.dyn_peer[27]  lookupStabilitySig:vector  ETV
vector 9298  Network.dyn_peer[27]  lookupTimeSig:vector  ETV
vector 9299  Network.dyn_peer[28]  lookupHopsSig:vector  ETV
vector 9300  Network.dyn_peer[28]  lookupStabilitySig:vector  ETV
vector 9301  Network.dyn_peer[28]  lookupTimeSig:vector  ETV
vector 9221  Network.dyn_peer[2]  lookupHopsSig:vector  ETV
vector 9222  Network.dyn_peer[2]  lookupStabilitySig:vector  ETV
vector 9223  Network.dyn_peer[2]  lookupTimeSig:vector  ETV
vector 9224  Network.dyn_peer[3]  lookupHopsSig:vector  ETV
vector 9225  Network.dyn_peer[3]  lookupStabilitySig:vector  ETV
vector 9226  Network.dyn_peer[3]  lookupTimeSig:vector  ETV
vector 9266  Network.dyn_peer[17]  lookupHopsSig:vector  ETV
vector 9267  Network.dyn_peer[17]  lookupStabilitySig:vector  ETV
vector 9268  Network.dyn_peer[17]  lookupTimeSig:vector  ETV
vector 9284  Network.dyn_peer[23]  lookupHopsSig:vector  ETV
vector 9285  Network.dyn_peer[23]  lookupStabilitySig:vector  ETV
vector 9286  Network.dyn_peer[23]  lookupTimeSig:vector  ETV
vector 9287  Network.dyn_peer[24]  lookupHopsSig:vector  ETV
vector 9288  Network.dyn_peer[24]  lookupStabilitySig:vector  ETV
vector 9289  Network.dyn_peer[24]  lookupTimeSig:vector  ETV
vector 9305  Network.dyn_peer[30]  lookupHopsSig:vector  ETV
vector 9306  Network.dyn_peer[30]  lookupStabilitySig:vector  ETV
vector 9307  Network.dyn_peer[30]  lookupTimeSig:vector  ETV
vector 9230  Network.dyn_peer[5]  lookupHopsSig:vector  ETV
vector 9231  Network.dyn_peer[5]  lookupStabilitySig:vector  ETV
vector 9232  Network.dyn_peer[5]  lookupTimeSig:vector  ETV
vector 9302  Network.dyn_peer[29]  lookupHopsSig:vector  ETV
vector 9303  Network.dyn_peer[29]  lookupStabilitySig:vector  ETV
vector 9304  Network.dyn_peer[29]  lookupTimeSig:vector  ETV
9215	203	20.200001	2
9215	553	20.800001	5
9215	853	21.101624471929	2
9215	1274	21.501725471929	4
9215	1526	21.701725471929	1
9215	3182	22.915192184954	3
9215	3286	23.006389950081	13
9215	3590	23.218576254721	2
9215	3814	23.411685651557	3
9215	3971	23.514319466605	3
9215	4557	23.914420466605	4
9215	5477	24.748684226638	7
9215	6161	25.348684226638	5
9215	6493	25.653095330146	2
9215	7042	26.156122531226	4
9215	7515	26.566133404588	4
9215	7861	26.866133404588	2
9215	9120	27.875407636572	9
9215	9650	28.28324331563	3
9215	9997	28.59376172496	3
9215	10267	28.856220210194	2
9215	10489	29.059430368271	2
9215	11026	29.559430368271	6
9215	11519	29.959531368271	4
9215	12515	30.659531368271	7
9215	13276	31.267600696044	5
9215	13288	31.27456416438	7
9215	13711	31.577413713194	3
9215	14216	31.977413713194	5
9215	15879	33.284309750231	12
9215	15922	33.304292955916	12
9215	16274	33.590204465392	3
9215	16597	33.889441328964	4
9215	16975	34.191737149141	2
9215	17138	34.296292514079	6
9215	17730	34.70193586761	5
9215	19272	35.952639688714	9
9215	19906	36.452639688714	4
9215	20371	36.861736608854	2
9215	20575	37.055687626071	7
9215	20814	37.262410718995	2
9215	21277	37.662410718995	3
9215	21471	37.863154458306	1
9215	21837	38.178591392733	2
9215	22208	38.479290991985	4
9215	22211	38.480323312926	2
9215	22230	38.511791204225	4
9215	22879	39.011954788608	5
9215	23621	39.611954788608	5
9215	24136	40.018482754521	3
9215	24509	40.318583754521	3
9215	24932	40.624746202645	2
9215	25545	41.124847202645	5
9215	26556	42.024847202645	9
9215	27356	42.63258994786	5
9215	27901	43.037163543388	3
9215	28249	43.337990968105	2
9215	29160	44.042723609636	6
9215	29171	44.043632370737	6
9215	29869	44.644324097321	7
9215	30071	44.844324097321	1
9215	30433	45.161903198692	3
9215	30821	45.570550709401	3
9215	31688	46.279060830587	6
9215	32121	46.663313279732	10
9215	32382	46.870395570206	1
9215	32475	46.959058214936	6
9215	33872	48.06339221835	11
9215	34305	48.36339221835	2
9215	35055	48.867355194793	4
9215	35450	49.094325856718	5
9215	35988	49.472410804441	5
9215	36065	49.503190351113	5
9215	37143	50.305645613314	8
9215	37359	50.505645613314	1
9215	37928	51.011470900494	4
9215	39144	51.915824506938	10
9215	39146	51.917509778714	6
9215	39407	52.125314941879	1
9215	39410	52.126572734768	1
9215	40110	52.726673734768	6
9215	40979	53.526673734768	7
9215	41349	53.83798672109	2
9215	41622	54.046269510268	1
9215	41881	54.229867172963	1
9215	41903	54.253032612249	1
9215	41962	54.314359955223	2
9215	42725	54.920975827207	7
9215	42997	55.120975827207	1
9215	43288	55.323292539032	3
9215	43713	55.623292539032	2
9215	44142	55.932101165033	3
9215	44532	56.239032837885	2
9215	44977	56.634550522492	7
9215	45094	56.740534947238	4
9215	45356	56.945351014588	2
9215	46104	57.645351014588	6
9215	46649	58.051520490664	3
9215	47157	58.401285713078	5
9215	47189	58.458290904587	3
9215	48181	59.263921495099	8
9215	48383	59.463921495099	1
9215	48836	59.773860463807	2
9215	49655	60.3740225063	5
9215	49909	60.579570313647	1
9215	50278	60.802930788199	8
9215	50415	60.90726196063	1
9215	50883	61.30726196063	3
9215	51569	61.815675131564	4
9215	52136	62.268029152652	7
9215	52295	62.418378171319	5
9215	52330	62.438933156759	5
9215	52378	62.477905538644	1
9215	52495	62.584278242292	1
9215	53210	63.184278242292	5
9215	53550	63.39139118774	1
9215	53600	63.426232951863	1
9215	54014	63.715213512263	7
9215	54475	64.133974639742	6
9215	54727	64.320313624454	5
9215	54976	64.523883261689	2
9215	55607	65.123883261689	5
9215	55973	65.43017169332	2
9215	56548	65.93596872492	4
9215	57060	66.441158810374	4
9215	57457	66.851410744873	3
9215	58656	67.870892217149	2
9215	58901	68.071266954392	9
9215	59131	68.257099537475	17
9215	59229	68.288254008347	3
9215	59825	68.689503594389	4
9215	60083	68.889503594389	1
9215	60867	69.4915602303	5
9215	61506	69.935552132897	4
9215	61578	69.999289110047	4
9215	62142	70.40066519027	4
9215	62735	70.80066519027	3
9215	63418	71.417229709027	6
9215	64828	72.517330709027	13
9215	65812	73.317330709027	8
9215	66145	73.622841013611	2
9215	66602	73.949928186093	2
9215	66885	74.200827941659	3
9215	66981	74.249945718701	4
9215	67343	74.624591942768	5
9215	69222	76.131358328426	16
9215	69654	76.531358328426	3
9215	70279	77.032794921418	4
9215	70541	77.239095189265	1
9215	71865	78.339196189265	12
9215	72251	78.739196189265	3
9215	72722	79.147652261082	4
9215	73433	79.748444423926	5
9215	73797	80.052185354709	2
9215	74340	80.554573782219	5
9215	74674	80.854573782219	3
9215	75216	81.360177990528	4
9215	75664	81.766391320774	4
9215	75746	81.840220889857	7
9215	75811	81.92745212156	4
9215	75852	81.973789144549	1
9215	75984	82.081105848358	1
9215	76689	82.581105848358	4
9215	77116	82.885937842999	2
9215	77574	83.289539802682	3
9215	77923	83.595267728815	3
9215	78428	84.050323900965	2
9215	78757	84.350323900965	3
9215	79796	85.150424900965	8
9215	80685	85.950424900965	7
9215	81200	86.456123223676	4
9215	81600	86.857194138151	3
9215	81747	86.964377440507	3
9215	81996	87.169389616634	2
9215	82258	87.371267156082	2
9215	82605	87.671267156082	2
9215	83375	88.275883364305	5
9215	83657	88.475984364305	3
9215	84856	89.475984364305	10
9215	85251	89.781714909516	3
9215	86039	90.491338548628	7
9215	87352	91.566748074123	7
9215	87823	91.966748074123	5
9215	88010	92.171998374259	1
9215	89470	93.576996626713	13
9215	89503	93.608909669358	2
9215	89519	93.613457597499	2
9215	90953	94.713519400911	12
9215	91327	95.013519400911	3
9215	91752	95.322306406557	2
9215	92032	95.529252237976	1
9215	92991	96.414209508712	3
9215	93019	96.438935311404	8
9215	93300	96.719015132545	2
9215	94787	97.927424499382	14
9215	96633	99.327424499382	14
9215	97000	99.62984915247	2
9215	97050	99.655043546148	1
9215	98223	100.562158134001	9
9215	99223	101.43272528798	2
9215	99422	101.635432245949	1
9215	99691	101.84417517378	2
9215	100046	102.14417517378	2
9215	100329	102.351726803723	1
9215	100604	102.553630779379	2
9215	101198	103.053630779379	4
9215	101958	103.740052274396	3
9215	102001	103.754623994371	6
9215	102548	104.152287026321	6
9215	102557	104.159419738389	3
9215	102587	104.183402121083	3
9215	103168	104.690649020666	5
9215	103572	104.997293167187	2
9215	103725	105.097394167187	1
9215	104141	105.397394167187	2
9215	104401	105.603054032632	1
9215	104849	106.009766050401	3
9215	104981	106.157691666046	3
9215	106254	107.157792666046	11
9215	107204	107.857792666046	7
9215	108119	108.660766707606	8
9215	108188	108.724026601877	6
9215	108795	109.231191208654	4
9215	109146	109.534801821233	3
9215	109399	109.734801821233	1
9215	110073	110.341779419658	6
9215	111173	111.146355859284	9
9215	111623	111.45236542819	3
9215	111991	111.75236542819	3
9215	112441	112.058613146265	2
9215	112492	112.102708156118	2
9215	112945	112.411745327447	4
9215	113566	112.911745327447	4
9215	114261	113.414484760979	4
9215	115057	114.01606816994	6
9215	115516	114.41606816994	3
9215	115657	114.51616916994	1
9215	116184	114.91616916994	3
9215	116487	115.10440463798	3
9215	116754	115.306560288144	1
9215	116993	115.507033562464	2
9215	117159	115.707033562464	1
9215	117579	116.095714407723	2
9215	118081	116.495815407723	4
9215	118407	116.795815407723	2
9215	118713	117.104402676476	2
9215	119372	117.612783329285	5
9215	119880	118.021469398751	4
9215	120132	118.206248130511	1
9215	120989	118.806349130511	6
9215	122510	120.006349130511	11
9215	123480	120.714462344498	6
9215	123961	121.071513864182	19
9215	124203	121.2587783881	8
9215	124294	121.318687876728	5
9215	124371	121.379861521944	4
9215	124642	121.595231327716	1
9215	124879	121.800779435374	2
9215	125120	122.000779435374	1
9215	125499	122.307008726122	2
9215	125539	122.338855743014	2
9215	125740	122.514449058673	1
9215	127105	123.719472799137	12
9215	127289	123.919472799137	1
9215	128128	124.619573799137	7
9215	128747	125.119573799137	5
9215	129489	125.734197792366	6
9215	129632	125.873556774437	4
9215	130010	126.241366635672	4
9215	130636	126.841467635672	6
9215	130898	127.062105431134	1
9215	131078	127.151927645905	0
9215	131301	127.351927645905	1
9215	132543	128.453854853643	11
9215	133112	128.971966302978	4
9215	133170	129.041872974775	3
9215	134875	130.547731690239	18
9215	135190	130.847731690239	2
9215	136099	131.656967169046	7
9215	136573	132.062790039875	3
9215	136883	132.308429402321	4
9215	136906	132.32136694743	4
9215	137450	132.731255171679	5
9215	137701	132.931255171679	1
9215	137921	133.141246067495	1
9215	138088	133.344581284753	1
9215	138264	133.546624691737	1
9216	203	20.200001	0.75
9216	553	20.800001	0.375
9216	853	21.101624471929	0.75
9216	1274	21.501725471929	0.5
9216	1526	21.701725471929	0.875
9216	3182	22.915192184954	0.625
9216	3286	23.006389950081	-0.625
9216	3590	23.218576254721	0.75
9216	3814	23.411685651557	0.625
9216	3971	23.514319466605	0.625
9216	4557	23.914420466605	0.5
9216	5477	24.748684226638	0.125
9216	6161	25.348684226638	0.375
9216	6493	25.653095330146	0.75
9216	7042	26.156122531226	0.5
9216	7515	26.566133404588	0.5
9216	7861	26.866133404588	0.75
9216	9120	27.875407636572	-0.125
9216	9650	28.28324331563	0.625
9216	9997	28.59376172496	0.625
9216	10267	28.856220210194	0.75
9216	10489	29.059430368271	0.75
9216	11026	29.559430368271	0.25
9216	11519	29.959531368271	0.5
9216	12515	30.659531368271	0.125
9216	13276	31.267600696044	0.375
9216	13288	31.27456416438	0.125
9216	13711	31.577413713194	0.625
9216	14216	31.977413713194	0.375
9216	15879	33.284309750231	-0.5
9216	15922	33.304292955916	-0.5
9216	16274	33.590204465392	0.625
9216	16597	33.889441328964	0.5
9216	16975	34.191737149141	0.75
9216	17138	34.296292514079	0.25
9216	17730	34.70193586761	0.375
9216	19272	35.952639688714	-0.125
9216	19906	36.452639688714	0.5
9216	20371	36.861736608854	0.75
9216	20575	37.055687626071	0.125
9216	20814	37.262410718995	0.75
9216	21277	37.662410718995	0.625
9216	21471	37.863154458306	0.875
9216	21837	38.178591392733	0.75
9216	22208	38.479290991985	0.5
9216	22211	38.480323312926	0.75
9216	22230	38.511791204225	0.5
9216	22879	39.011954788608	0.375
9216	23621	39.611954788608	0.375
9216	24136	40.018482754521	0.625
9216	24509	40.318583754521	0.625
9216	24932	40.624746202645	0.75
9216	25545	41.124847202645	0.375
9216	26556	42.024847202645	-0.125
9216	27356	42.63258994786	0.375
9216	27901	43.037163543388	0.625
9216	28249	43.337990968105	0.75
9216	29160	44.042723609636	0.25
9216	29171	44.043632370737	0.25
9216	29869	44.644324097321	0.125
9216	30071	44.844324097321	0.875
9216	30433	45.161903198692	0.625
9216	30821	45.570550709401	0.625
9216	31688	46.279060830587	0.25
9216	32121	46.663313279732	-0.25
9216	32382	46.870395570206	0.875
9216	32475	46.959058214936	0.25
9216	33872	48.06339221835	-0.375
9216	34305	48.36339221835	0.75
9216	35055	48.867355194793	0.5
9216	35450	49.094325856718	0.375
9216	35988	49.472410804441	0.375
9216	36065	49.503190351113	0.375
9216	37143	50.305645613314	0
9216	37359	50.505645613314	0.875
9216	37928	51.011470900494	0.5
9216	39144	51.915824506938	-0.25
9216	39146	51.917509778714	0.25
9216	39407	52.125314941879	0.875
9216	39410	52.126572734768	0.875
9216	40110	52.726673734768	0.25
9216	40979	53.526673734768	0.125
9216	41349	53.83798672109	0.75
9216	41622	54.046269510268	0.875
9216	41881	54.229867172963	0.875
9216	41903	54.253032612249	0.875
9216	41962	54.314359955223	0.75
9216	42725	54.920975827207	0.125
9216	42997	55.120975827207	0.875
9216	43288	55.323292539032	0.625
9216	43713	55.623292539032	0.75
9216	44142	55.932101165033	0.625
9216	44532	56.239032837885	0.75
9216	44977	56.634550522492	0.125
9216	45094	56.740534947238	0.5
9216	45356	56.945351014588	0.75
9216	46104	57.645351014588	0.25
9216	46649	58.051520490664	0.625
9216	47157	58.401285713078	0.375
9216	47189	58.458290904587	0.625
9216	48181	59.263921495099	0
9216	48383	59.463921495099	0.88888888806105
9216	48836	59.773860463807	0.75
9216	49655	60.3740225063	0.375
9216	49909	60.579570313647	0.875
9216	50278	60.802930788199	0
9216	50415	60.90726196063	0.875
9216	50883	61.30726196063	0.625
9216	51569	61.815675131564	0.5
9216	52136	62.268029152652	0.125
9216	52295	62.418378171319	0.375
9216	52330	62.438933156759	0.375
9216	52378	62.477905538644	0.875
9216	52495	62.584278242292	0.875
9216	53210	63.184278242292	0.375
9216	53550	63.39139118774	0.875
9216	53600	63.426232951863	0.875
9216	54014	63.715213512263	0.125
9216	54475	64.133974639742	0.25
9216	54727	64.320313624454	0.375
9216	54976	64.523883261689	0.75
9216	55607	65.123883261689	0.375
9216	55973	65.43017169332	0.75
9216	56548	65.93596872492	0.5
9216	57060	66.441158810374	0.5
9216	57457	66.851410744873	0.625
9216	58656	67.870892217149	0.75
9216	58901	68.071266954392	-0.125
9216	59131	68.257099537475	-1.125
9216	59229	68.288254008347	0.625
9216	59825	68.689503594389	0.5
9216	60083	68.889503594389	0.875
9216	60867	69.4915602303	0.375
9216	61506	69.935552132897	0.5
9216	61578	69.999289110047	0.5
9216	62142	70.40066519027	0.5
9216	62735	70.80066519027	0.625
9216	63418	71.417229709027	0.25
9216	64828	72.517330709027	-0.625
9216	65812	73.317330709027	0
9216	66145	73.622841013611	0.75
9216	66602	73.949928186093	0.75
9216	66885	74.200827941659	0.625
9216	66981	74.249945718701	0.5
9216	67343	74.624591942768	0.375
9216	69222	76.131358328426	-1
9216	69654	76.531358328426	0.625
9216	70279	77.032794921418	0.5
9216	70541	77.239095189265	0.875
9216	71865	78.339196189265	-0.5
9216	72251	78.739196189265	0.625
9216	72722	79.147652261082	0.5
9216	73433	79.748444423926	0.375
9216	73797	80.052185354709	0.75
9216	74340	80.554573782219	0.375
9216	74674	80.854573782219	0.625
9216	75216	81.360177990528	0.5
9216	75664	81.766391320774	0.5
9216	75746	81.840220889857	0.125
9216	75811	81.92745212156	0.5
9216	75852	81.973789144549	0.875
9216	75984	82.081105848358	0.875
9216	76689	82.581105848358	0.5
9216	77116	82.885937842999	0.75
9216	77574	83.289539802682	0.625
9216	77923	83.595267728815	0.625
9216	78428	84.050323900965	0.77777777612209
9216	78757	84.350323900965	0.625
9216	79796	85.150424900965	0
9216	80685	85.950424900965	0.125
9216	81200	86.456123223676	0.5
9216	81600	86.857194138151	0.625
9216	81747	86.964377440507	0.625
9216	81996	87.169389616634	0.75
9216	82258	87.371267156082	0.75
9216	82605	87.671267156082	0.75
9216	83375	88.275883364305	0.375
9216	83657	88.475984364305	0.625
9216	84856	89.475984364305	-0.25
9216	85251	89.781714909516	0.625
9216	86039	90.491338548628	0.125
9216	87352	91.566748074123	0.125
9216	87823	91.966748074123	0.375
9216	88010	92.171998374259	0.875
9216	89470	93.576996626713	-0.625
9216	89503	93.608909669358	0.75
9216	89519	93.613457597499	0.77777777612209
9216	90953	94.713519400911	-0.5
9216	91327	95.013519400911	0.625
9216	91752	95.322306406557	0.75
9216	92032	95.529252237976	0.875
9216	92991	96.414209508712	0.625
9216	93019	96.438935311404	0
9216	93300	96.719015132545	0.75
9216	94787	97.927424499382	-0.75
9216	96633	99.327424499382	-0.75
9216	97000	99.62984915247	0.75
9216	97050	99.655043546148	0.875
9216	98223	100.562158134001	-0.125
9216	99223	101.43272528798	0.75
9216	99422	101.635432245949	0.875
9216	99691	101.84417517378	0.75
9216	100046	102.14417517378	0.75
9216	100329	102.351726803723	0.875
9216	100604	102.553630779379	0.75
9216	101198	103.053630779379	0.5
9216	101958	103.740052274396	0.625
9216	102001	103.754623994371	0.25
9216	102548	104.152287026321	0.25
9216	102557	104.159419738389	0.625
9216	102587	104.183402121083	0.625
9216	103168	104.690649020666	0.375
9216	103572	104.997293167187	0.75
9216	103725	105.097394167187	0.875
9216	104141	105.397394167187	0.75
9216	104401	105.603054032632	0.875
9216	104849	106.009766050401	0.625
9216	104981	106.157691666046	0.625
9216	106254	107.157792666046	-0.375
9216	107204	107.857792666046	0.125
9216	108119	108.660766707606	0
9216	108188	108.724026601877	0.25
9216	108795	109.231191208654	0.5
9216	109146	109.534801821233	0.625
9216	109399	109.734801821233	0.875
9216	110073	110.341779419658	0.25
9216	111173	111.146355859284	-0.125
9216	111623	111.45236542819	0.625
9216	111991	111.75236542819	0.625
9216	112441	112.058613146265	0.75
9216	112492	112.102708156118	0.75
9216	112945	112.411745327447	0.5
9216	113566	112.911745327447	0.5
9216	114261	113.414484760979	0.5
9216	115057	114.01606816994	0.25
9216	115516	114.41606816994	0.625
9216	115657	114.51616916994	0.875
9216	116184	114.91616916994	0.625
9216	116487	115.10440463798	0.625
9216	116754	115.306560288144	0.875
9216	116993	115.507033562464	0.75
9216	117159	115.707033562464	0.875
9216	117579	116.095714407723	0.75
9216	118081	116.495815407723	0.5
9216	118407	116.795815407723	0.75
9216	118713	117.104402676476	0.75
9216	119372	117.612783329285	0.375
9216	119880	118.021469398751	0.5
9216	120132	118.206248130511	0.875
9216	120989	118.806349130511	0.25
9216	122510	120.006349130511	-0.375
9216	123480	120.714462344498	0.25
9216	123961	121.071513864182	-1.375
9216	124203	121.2587783881	0
9216	124294	121.318687876728	0.375
9216	124371	121.379861521944	0.5
9216	124642	121.595231327716	0.875
9216	124879	121.800779435374	0.75
9216	125120	122.000779435374	0.875
9216	125499	122.307008726122	0.75
9216	125539	122.338855743014	0.75
9216	125740	122.514449058673	0.875
9216	127105	123.719472799137	-0.5
9216	127289	123.919472799137	0.875
9216	128128	124.619573799137	0.125
9216	128747	125.119573799137	0.375
9216	129489	125.734197792366	0.25
9216	129632	125.873556774437	0.5
9216	130010	126.241366635672	0.5
9216	130636	126.841467635672	0.25
9216	130898	127.062105431134	0.875
9216	131078	127.151927645905	1
9216	131301	127.351927645905	0.875
9216	132543	128.453854853643	-0.375
9216	133112	128.971966302978	0.5
9216	133170	129.041872974775	0.625
9216	134875	130.547731690239	-1.25
9216	135190	130.847731690239	0.75
9216	136099	131.656967169046	0.125
9216	136573	132.062790039875	0.625
9216	136883	132.308429402321	0.5
9216	136906	132.32136694743	0.5
9216	137450	132.731255171679	0.375
9216	137701	132.931255171679	0.875
9216	137921	133.141246067495	0.875
9216	138088	133.344581284753	0.875
9216	138264	133.546624691737	0.875
9217	203	20.200001	0.2
9217	553	20.800001	0.6
9217	853	21.101624471929	0.3
9217	1274	21.501725471929	0.4
9217	1526	21.701725471929	0.2
9217	3182	22.915192184954	0.4
9217	3286	23.006389950081	1.3
9217	3590	23.218576254721	0.3
9217	3814	23.411685651557	0.4
9217	3971	23.514319466605	0.4
9217	4557	23.914420466605	0.4
9217	5477	24.748684226638	0.7
9217	6161	25.348684226638	0.6
9217	6493	25.653095330146	0.3
9217	7042	26.156122531226	0.5
9217	7515	26.566133404588	0.4
9217	7861	26.866133404588	0.3
9217	9120	27.875407636572	1
9217	9650	28.28324331563	0.4
9217	9997	28.59376172496	0.3
9217	10267	28.856220210194	0.3
9217	10489	29.059430368271	0.2
9217	11026	29.559430368271	0.5
9217	11519	29.959531368271	0.4
9217	12515	30.659531368271	0.7
9217	13276	31.267600696044	0.6
9217	13288	31.27456416438	0.7
9217	13711	31.577413713194	0.3
9217	14216	31.977413713194	0.4
9217	15879	33.284309750231	1.3
9217	15922	33.304292955916	1.3
9217	16274	33.590204465392	0.3
9217	16597	33.889441328964	0.5
9217	16975	34.191737149141	0.3
9217	17138	34.296292514079	0.7
9217	17730	34.70193586761	0.4
9217	19272	35.952639688714	0.9
9217	19906	36.452639688714	0.5
9217	20371	36.861736608854	0.3
9217	20575	37.055687626071	0.6
9217	20814	37.262410718995	0.2
9217	21277	37.662410718995	0.4
9217	21471	37.863154458306	0.2
9217	21837	38.178591392733	0.3
9217	22208	38.479290991985	0.5
9217	22211	38.480323312926	0.3
9217	22230	38.511791204225	0.5
9217	22879	39.011954788608	0.5
9217	23621	39.611954788608	0.6
9217	24136	40.018482754521	0.4
9217	24509	40.318583754521	0.3
9217	24932	40.624746202645	0.3
9217	25545	41.124847202645	0.5
9217	26556	42.024847202645	0.9
9217	27356	42.63258994786	0.6
9217	27901	43.037163543388	0.4
9217	28249	43.337990968105	0.3
9217	29160	44.042723609636	0.7
9217	29171	44.043632370737	0.7
9217	29869	44.644324097321	0.6
9217	30071	44.844324097321	0.2
9217	30433	45.161903198692	0.3
9217	30821	45.570550709401	0.4
9217	31688	46.279060830587	0.7
9217	32121	46.663313279732	1
9217	32382	46.870395570206	0.2
9217	32475	46.959058214936	0.7
9217	33872	48.06339221835	1.1
9217	34305	48.36339221835	0.3
9217	35055	48.867355194793	0.5
9217	35450	49.094325856718	0.6
9217	35988	49.472410804441	0.6
9217	36065	49.503190351113	0.6
9217	37143	50.305645613314	0.8
9217	37359	50.505645613314	0.2
9217	37928	51.011470900494	0.5
9217	39144	51.915824506938	0.9
9217	39146	51.917509778714	0.6
9217	39407	52.125314941879	0.2
9217	39410	52.126572734768	0.2
9217	40110	52.726673734768	0.6
9217	40979	53.526673734768	0.8
9217	41349	53.83798672109	0.3
9217	41622	54.046269510268	0.2
9217	41881	54.229867172963	0.2
9217	41903	54.253032612249	0.2
9217	41962	54.314359955223	0.2
9217	42725	54.920975827207	0.6
9217	42997	55.120975827207	0.2
9217	43288	55.323292539032	0.2
9217	43713	55.623292539032	0.3
9217	44142	55.932101165033	0.3
9217	44532	56.239032837885	0.3
9217	44977	56.634550522492	0.8
9217	45094	56.740534947238	0.5
9217	45356	56.945351014588	0.2
9217	46104	57.645351014588	0.7
9217	46649	58.051520490664	0.4
9217	47157	58.401285713078	0.6
9217	47189	58.458290904587	0.4
9217	48181	59.263921495099	0.8
9217	48383	59.463921495099	0.2
9217	48836	59.773860463807	0.3
9217	49655	60.3740225063	0.6
9217	49909	60.579570313647	0.2
9217	50278	60.802930788199	0.8
9217	50415	60.90726196063	0.1
9217	50883	61.30726196063	0.4
9217	51569	61.815675131564	0.5
9217	52136	62.268029152652	0.8
9217	52295	62.418378171319	0.6
9217	52330	62.438933156759	0.6
9217	52378	62.477905538644	0.2
9217	52495	62.584278242292	0.1
9217	53210	63.184278242292	0.6
9217	53550	63.39139118774	0.2
9217	53600	63.426232951863	0.2
9217	54014	63.715213512263	0.7
9217	54475	64.133974639742	0.7
9217	54727	64.320313624454	0.6
9217	54976	64.523883261689	0.2
9217	55607	65.123883261689	0.6
9217	55973	65.43017169332	0.3
9217	56548	65.93596872492	0.5
9217	57060	66.441158810374	0.5
9217	57457	66.851410744873	0.4
9217	58656	67.870892217149	0.3
9217	58901	68.071266954392	1
9217	59131	68.257099537475	1.4
9217	59229	68.288254008347	0.4
9217	59825	68.689503594389	0.4
9217	60083	68.889503594389	0.2
9217	60867	69.4915602303	0.6
9217	61506	69.935552132897	0.5
9217	61578	69.999289110047	0.5
9217	62142	70.40066519027	0.4
9217	62735	70.80066519027	0.4
9217	63418	71.417229709027	0.6
9217	64828	72.517330709027	1.1
9217	65812	73.317330709027	0.8
9217	66145	73.622841013611	0.3
9217	66602	73.949928186093	0.2
9217	66885	74.200827941659	0.4
9217	66981	74.249945718701	0.3
9217	67343	74.624591942768	0.6
9217	69222	76.131358328426	1.5
9217	69654	76.531358328426	0.4
9217	70279	77.032794921418	0.5
9217	70541	77.239095189265	0.2
9217	71865	78.339196189265	1.1
9217	72251	78.739196189265	0.4
9217	72722	79.147652261082	0.4
9217	73433	79.748444423926	0.6
9217	73797	80.052185354709	0.3
9217	74340	80.554573782219	0.5
9217	74674	80.854573782219	0.3
9217	75216	81.360177990528	0.5
9217	75664	81.766391320774	0.4
9217	75746	81.840220889857	0.7
9217	75811	81.92745212156	0.5
9217	75852	81.973789144549	0.2
9217	75984	82.081105848358	0.1
9217	76689	82.581105848358	0.5
9217	77116	82.885937842999	0.3
9217	77574	83.289539802682	0.4
9217	77923	83.595267728815	0.3
9217	78428	84.050323900965	0.2
9217	78757	84.350323900965	0.3
9217	79796	85.150424900965	0.8
9217	80685	85.950424900965	0.8
9217	81200	86.456123223676	0.5
9217	81600	86.857194138151	0.4
9217	81747	86.964377440507	0.4
9217	81996	87.169389616634	0.2
9217	82258	87.371267156082	0.2
9217	82605	87.671267156082	0.3
9217	83375	88.275883364305	0.6
9217	83657	88.475984364305	0.2
9217	84856	89.475984364305	1
9217	85251	89.781714909516	0.3
9217	86039	90.491338548628	0.7
9217	87352	91.566748074123	0.7
9217	87823	91.966748074123	0.4
9217	88010	92.171998374259	0.2
9217	89470	93.576996626713	1.4