version 2
run Stability-99-20130526-18:53:45-1898
attr configname Stability
attr datetime 20130526-18:53:45
attr experiment Stability
attr inifile omnetpp.ini
attr iterationvars $0=1e-3
attr iterationvars2 "$0=1e-3, $repetition=9"
attr measurement $0=1e-3
attr network Network
attr processid 1898
attr repetition 9
attr replication #9
attr resultdir results
attr runnumber 99
attr seedset 99

vector 9699  Network.churner  inGoingSizeSig:vector  ETV
vector 9618  Network.dyn_peer[5]  lookupHopsSig:vector  ETV
vector 9619  Network.dyn_peer[5]  lookupStabilitySig:vector  ETV
vector 9620  Network.dyn_peer[5]  lookupTimeSig:vector  ETV
vector 9651  Network.dyn_peer[16]  lookupHopsSig:vector  ETV
vector 9652  Network.dyn_peer[16]  lookupStabilitySig:vector  ETV
vector 9653  Network.dyn_peer[16]  lookupTimeSig:vector  ETV
vector 9654  Network.dyn_peer[17]  lookupHopsSig:vector  ETV
vector 9655  Network.dyn_peer[17]  lookupStabilitySig:vector  ETV
vector 9656  Network.dyn_peer[17]  lookupTimeSig:vector  ETV
vector 9696  Network.dyn_peer[31]  lookupHopsSig:vector  ETV
vector 9697  Network.dyn_peer[31]  lookupStabilitySig:vector  ETV
vector 9698  Network.dyn_peer[31]  lookupTimeSig:vector  ETV
vector 9603  Network.dyn_peer[0]  lookupHopsSig:vector  ETV
vector 9604  Network.dyn_peer[0]  lookupStabilitySig:vector  ETV
vector 9605  Network.dyn_peer[0]  lookupTimeSig:vector  ETV
vector 9612  Network.dyn_peer[3]  lookupHopsSig:vector  ETV
vector 9613  Network.dyn_peer[3]  lookupStabilitySig:vector  ETV
vector 9614  Network.dyn_peer[3]  lookupTimeSig:vector  ETV
vector 9624  Network.dyn_peer[7]  lookupHopsSig:vector  ETV
vector 9625  Network.dyn_peer[7]  lookupStabilitySig:vector  ETV
vector 9626  Network.dyn_peer[7]  lookupTimeSig:vector  ETV
vector 9630  Network.dyn_peer[9]  lookupHopsSig:vector  ETV
vector 9631  Network.dyn_peer[9]  lookupStabilitySig:vector  ETV
vector 9632  Network.dyn_peer[9]  lookupTimeSig:vector  ETV
vector 9639  Network.dyn_peer[12]  lookupHopsSig:vector  ETV
vector 9640  Network.dyn_peer[12]  lookupStabilitySig:vector  ETV
vector 9641  Network.dyn_peer[12]  lookupTimeSig:vector  ETV
vector 9645  Network.dyn_peer[14]  lookupHopsSig:vector  ETV
vector 9646  Network.dyn_peer[14]  lookupStabilitySig:vector  ETV
vector 9647  Network.dyn_peer[14]  lookupTimeSig:vector  ETV
vector 9663  Network.dyn_peer[20]  lookupHopsSig:vector  ETV
vector 9664  Network.dyn_peer[20]  lookupStabilitySig:vector  ETV
vector 9665  Network.dyn_peer[20]  lookupTimeSig:vector  ETV
vector 9672  Network.dyn_peer[23]  lookupHopsSig:vector  ETV
vector 9673  Network.dyn_peer[23]  lookupStabilitySig:vector  ETV
vector 9674  Network.dyn_peer[23]  lookupTimeSig:vector  ETV
vector 9606  Network.dyn_peer[1]  lookupHopsSig:vector  ETV
vector 9607  Network.dyn_peer[1]  lookupStabilitySig:vector  ETV
vector 9608  Network.dyn_peer[1]  lookupTimeSig:vector  ETV
vector 9621  Network.dyn_peer[6]  lookupHopsSig:vector  ETV
vector 9622  Network.dyn_peer[6]  lookupStabilitySig:vector  ETV
vector 9623  Network.dyn_peer[6]  lookupTimeSig:vector  ETV
vector 9627  Network.dyn_peer[8]  lookupHopsSig:vector  ETV
vector 9628  Network.dyn_peer[8]  lookupStabilitySig:vector  ETV
vector 9629  Network.dyn_peer[8]  lookupTimeSig:vector  ETV
vector 9633  Network.dyn_peer[10]  lookupHopsSig:vector  ETV
vector 9634  Network.dyn_peer[10]  lookupStabilitySig:vector  ETV
vector 9635  Network.dyn_peer[10]  lookupTimeSig:vector  ETV
vector 9642  Network.dyn_peer[13]  lookupHopsSig:vector  ETV
vector 9643  Network.dyn_peer[13]  lookupStabilitySig:vector  ETV
vector 9644  Network.dyn_peer[13]  lookupTimeSig:vector  ETV
vector 9660  Network.dyn_peer[19]  lookupHopsSig:vector  ETV
vector 9661  Network.dyn_peer[19]  lookupStabilitySig:vector  ETV
vector 9662  Network.dyn_peer[19]  lookupTimeSig:vector  ETV
vector 9675  Network.dyn_peer[24]  lookupHopsSig:vector  ETV
vector 9676  Network.dyn_peer[24]  lookupStabilitySig:vector  ETV
vector 9677  Network.dyn_peer[24]  lookupTimeSig:vector  ETV
vector 9681  Network.dyn_peer[26]  lookupHopsSig:vector  ETV
vector 9682  Network.dyn_peer[26]  lookupStabilitySig:vector  ETV
vector 9683  Network.dyn_peer[26]  lookupTimeSig:vector  ETV
vector 9609  Network.dyn_peer[2]  lookupHopsSig:vector  ETV
vector 9610  Network.dyn_peer[2]  lookupStabilitySig:vector  ETV
vector 9611  Network.dyn_peer[2]  lookupTimeSig:vector  ETV
vector 9615  Network.dyn_peer[4]  lookupHopsSig:vector  ETV
vector 9616  Network.dyn_peer[4]  lookupStabilitySig:vector  ETV
vector 9617  Network.dyn_peer[4]  lookupTimeSig:vector  ETV
vector 9666  Network.dyn_peer[21]  lookupHopsSig:vector  ETV
vector 9667  Network.dyn_peer[21]  lookupStabilitySig:vector  ETV
vector 9668  Network.dyn_peer[21]  lookupTimeSig:vector  ETV
vector 9669  Network.dyn_peer[22]  lookupHopsSig:vector  ETV
vector 9670  Network.dyn_peer[22]  lookupStabilitySig:vector  ETV
vector 9671  Network.dyn_peer[22]  lookupTimeSig:vector  ETV
vector 9678  Network.dyn_peer[25]  lookupHopsSig:vector  ETV
vector 9679  Network.dyn_peer[25]  lookupStabilitySig:vector  ETV
vector 9680  Network.dyn_peer[25]  lookupTimeSig:vector  ETV
vector 9687  Network.dyn_peer[28]  lookupHopsSig:vector  ETV
vector 9688  Network.dyn_peer[28]  lookupStabilitySig:vector  ETV
vector 9689  Network.dyn_peer[28]  lookupTimeSig:vector  ETV
vector 9636  Network.dyn_peer[11]  lookupHopsSig:vector  ETV
vector 9637  Network.dyn_peer[11]  lookupStabilitySig:vector  ETV
vector 9638  Network.dyn_peer[11]  lookupTimeSig:vector  ETV
vector 9684  Network.dyn_peer[27]  lookupHopsSig:vector  ETV
vector 9685  Network.dyn_peer[27]  lookupStabilitySig:vector  ETV
vector 9686  Network.dyn_peer[27]  lookupTimeSig:vector  ETV
vector 9693  Network.dyn_peer[30]  lookupHopsSig:vector  ETV
vector 9694  Network.dyn_peer[30]  lookupStabilitySig:vector  ETV
vector 9695  Network.dyn_peer[30]  lookupTimeSig:vector  ETV
vector 9657  Network.dyn_peer[18]  lookupHopsSig:vector  ETV
vector 9658  Network.dyn_peer[18]  lookupStabilitySig:vector  ETV
vector 9659  Network.dyn_peer[18]  lookupTimeSig:vector  ETV
vector 9690  Network.dyn_peer[29]  lookupHopsSig:vector  ETV
vector 9691  Network.dyn_peer[29]  lookupStabilitySig:vector  ETV
vector 9692  Network.dyn_peer[29]  lookupTimeSig:vector  ETV
vector 9648  Network.dyn_peer[15]  lookupHopsSig:vector  ETV
vector 9649  Network.dyn_peer[15]  lookupStabilitySig:vector  ETV
vector 9650  Network.dyn_peer[15]  lookupTimeSig:vector  ETV
9603	142	20.100001	1
9603	441	20.600001	4
9603	1514	21.802038283435	11
9603	1936	22.107254743947	2
9603	2213	22.300122	15
9603	3770	23.503207511735	15
9603	4019	23.703207511735	1
9603	4616	24.2232469889	2
9603	5189	24.625900504979	5
9603	5583	24.904841144523	13
9603	5612	24.924261300767	6
9603	5877	25.126582619478	1
9603	5881	25.128632279242	7
9603	6931	26.028733279242	10
9603	7921	26.828733279242	9
9603	8936	27.63569412081	9
9603	9845	28.243831395222	6
9603	10176	28.450497042703	1
9603	10967	28.955916991578	6
9603	11746	29.543185606796	2
9603	12478	30.143185606796	5
9603	12881	30.549925022843	3
9603	13340	30.950026022843	4
9603	13800	31.350026022843	3
9603	14449	31.859116433681	5
9603	14826	32.159116433681	2
9603	15751	32.97049241843	7
9603	16560	33.576526738946	5
9603	16977	33.88029240313	2
9603	18145	34.712807306028	3
9603	18174	34.71793529054	0
9603	19042	35.41793529054	6
9603	19543	35.82686366197	3
9603	20007	36.234078803172	3
9603	20632	36.742466475306	5
9603	21356	37.342466475306	7
9603	21510	37.453539366644	1
9603	22239	38.052200014678	6
9603	23412	38.954941628896	10
9603	23783	39.354941628896	3
9603	24067	39.655086473982	2
9603	24195	39.755187473982	1
9603	24916	40.355187473982	5
9603	25203	40.558290092781	1
9603	25479	40.760985212449	2
9603	26323	41.541493329075	1
9603	26556	41.74879302818	1
9603	27084	42.151335425335	4
9603	27787	42.751335425335	5
9603	28092	43.05967723513	2
9603	28318	43.263673835284	1
9603	28735	43.666198072606	4
9603	28942	43.866198072606	1
9603	29406	44.273148367454	3
9603	29696	44.504443133299	1
9603	29876	44.612597170446	1
9603	30086	44.812597170446	1
9603	30896	45.539931643644	3
9603	31269	45.843067482051	3
9603	31620	46.143067482051	2
9603	32942	47.049661892526	12
9603	33716	47.749661892526	6
9603	33887	47.861123014311	1
9603	34721	48.461123014311	7
9603	35760	49.266435416186	9
9603	36935	50.272635142539	3
9603	37036	50.372782577051	10
9603	37070	50.450461937694	10
9603	38225	51.353655908102	9
9603	39525	52.653655908102	13
9603	40154	53.167472100993	3
9603	40740	53.661596518793	10
9603	40891	53.771840853439	6
9603	40946	53.839663562991	5
9603	41107	53.969907701095	3
9603	41342	54.144582990072	2
9603	41634	54.377961110058	3
9603	41718	54.45427687416	2
9603	41907	54.587728363656	8
9603	42067	54.780286397567	9
9603	42209	54.886095243985	1
9603	42847	55.528028633691	4
9603	42937	55.631330863095	1
9603	43407	56.131330863095	4
9603	43621	56.339713816009	1
9603	43729	56.47508513265	1
9603	44124	56.746045865702	3
9603	44252	56.854702240937	1
9603	44913	57.454702240937	5
9603	45634	58.055150821575	5
9603	45815	58.255446000169	1
9603	46653	59.16111168505	9
9603	47508	59.96111168505	7
9603	48074	60.466914714824	4
9603	48520	60.770161166798	3
9603	49731	61.770262166798	11
9603	50299	62.270262166798	4
9603	50632	62.57210619194	2
9603	51464	63.278772948316	8
9603	52555	64.275477539626	3
9603	52567	64.278772948316	9
9603	52751	64.480279488874	1
9603	52755	64.483600260875	1
9603	53182	64.910817614313	4
9603	54855	66.315857402086	17
9603	55395	66.715857402086	4
9603	55830	67.021204618176	1
9603	55977	67.118599376235	4
9603	56392	67.429091962045	3
9603	56413	67.449729821296	3
9603	56519	67.566174824148	9
9603	56957	67.867392174792	3
9603	57389	68.267392174792	3
9603	57712	68.571265684535	2
9603	58039	68.871366684535	3
9603	58726	69.471366684535	6
9603	59226	69.879464861783	3
9603	59852	70.380264178741	5
9603	60444	70.893572095632	5
9603	60860	71.29646403424	2
9603	61776	71.99656503424	7
9603	62253	72.49656503424	4
9603	62633	72.8047055942	2
9603	62882	73.004962583252	2
9603	63496	73.504962583252	4
9603	64275	74.113482290811	5
9603	64510	74.313583290811	2
9603	64851	74.613583290811	2
9603	65487	75.120716745469	5
9603	66092	75.620716745469	4
9603	66316	75.826702415002	1
9603	66597	76.031475642655	1
9603	67276	76.638776681581	6
9603	67781	77.039257412722	4
9603	69095	78.039358412722	10
9603	69868	78.639358412722	5
9603	70460	79.141657316904	4
9603	70718	79.296761089988	4
9603	70752	79.342974603961	2
9603	71039	79.58381431348	3
9603	71321	79.798248662854	5
9603	72489	80.698349662854	11
9603	73087	81.198349662854	4
9603	73619	81.705104846325	4
9603	73740	81.81422030899	4
9603	73831	81.912228489249	1
9603	74870	82.816098597692	9
9603	76225	83.916098597692	11
9603	76499	84.12001292006	1
9603	76779	84.328820651074	1
9603	76798	84.330235509336	0
9603	77493	84.830235509336	4
9603	77916	85.140526269621	2
9603	78717	85.645723085676	5
9603	79036	85.852914034533	1
9603	79604	86.358077374765	5
9603	80277	86.863216392049	5
9603	80557	87.065137457175	1
9603	80597	87.117314034711	1
9603	80834	87.278396438973	1
9603	81182	87.578497438973	3
9603	81961	88.178497438973	6
9603	82990	89.087691477916	8
9603	83338	89.397830188256	2
9603	84138	90.104945343285	7
9603	84651	90.555716534608	1
9603	84933	90.760385435019	2
9603	85513	91.281160241506	4
9603	86280	91.888559301235	5
9603	86657	92.190226148199	8
9603	86669	92.192249605758	3
9603	86893	92.397904124157	1
9603	86896	92.401238745797	1
9603	87525	92.901339745797	5
9603	87899	93.201339745797	3
9603	88203	93.521219954514	2
9603	88509	93.83521674324	2
9603	88839	94.13531774324	3
9603	89146	94.43531774324	2
9603	89356	94.641863313397	1
9603	89903	95.051055795683	3
9603	90024	95.187881823361	3
9603	90777	95.796802980849	6
9603	91284	96.196802980849	4
9603	92568	97.195723463717	3
9603	92581	97.203893919261	11
9603	92966	97.514857455248	3
9603	94202	98.514857455248	9
9603	94422	98.697501980555	5
9603	94640	98.875704139767	1
9603	95386	99.475805139767	6
9603	95623	99.675805139767	2
9603	96263	100.178314117027	4
9603	96540	100.380942190481	1
9603	96638	100.448943942842	1
9603	96913	100.690679223707	2
9603	97103	100.851660332554	3
9603	97125	100.858822064863	3
9603	98384	101.865785225293	11
9603	99053	102.465785225293	5
9603	99777	103.111799934696	2
9603	100194	103.511799934696	3
9603	100813	104.014762748343	5
9603	100916	104.096884387066	5
9603	100922	104.096984387066	4
9603	101463	104.600834248635	5
9603	102266	105.300834248635	6
9603	102482	105.501566292781	1
9603	102838	105.809616589585	2
9603	103730	106.512642358586	6
9603	103914	106.67414032854	7
9603	104119	106.814272445317	2
9603	104639	107.275211979179	7
9603	104844	107.431320261761	5
9603	105716	108.139591631729	7
9603	106885	109.139591631729	9
9603	107299	109.444774753193	3
9603	107581	109.64996684855	1
9603	108202	110.252989015091	6
9603	108608	110.652989015091	4
9603	108832	110.857371272224	2
9603	109051	111.063953799964	2
9603	109252	111.266923675339	1
9603	110464	112.376424815262	13
9603	110961	112.876424815262	6
9603	111152	113.079690677594	1
9603	111442	113.309119123904	1
9603	112125	113.811878203261	5
9603	113506	114.911878203261	11
9603	114428	115.711982316462	9
9603	114654	115.911982316462	1
9603	114900	116.134229092232	3
9603	115181	116.405636536323	3
9603	116384	117.405786265862	11
9603	116944	117.91400491155	4
9603	117627	118.519806772691	8
9603	118373	119.119806772691	5
9603	119072	119.725117226982	6
9603	119287	119.938112049576	1
9603	119810	120.338723082251	4
9603	120411	120.838723082251	4
9603	120889	121.241674419759	5
9603	121098	121.441674419759	1
9603	121244	121.589446759701	1
9603	121323	121.643013811566	1
9603	121493	121.79752935887	1
9603	122270	122.40448813183	6
9603	123321	123.411934275263	10
9603	123746	123.815009316733	3
9603	123807	123.866134305938	3
9603	124141	124.174286469582	4
9603	124697	124.574286469582	4
9603	125358	125.113985368267	7
9603	125725	125.416821112269	2
9603	126050	125.682311771684	10
9603	126843	126.392056726251	7
9603	127528	126.992056726251	5
9603	128567	127.801712483899	8
9603	128929	128.112900122336	8
9603	128935	128.116506995404	2
9603	129400	128.518833709367	3
9603	129403	128.521228174536	3
9603	129703	128.722416420845	1
9603	129725	128.727271745904	1
9603	130635	129.527372745904	8
9603	131125	129.927372745904	3
9603	131427	130.231035387384	2
9603	131685	130.436378575992	1
9603	131689	130.438060137202	1
9603	131839	130.538161137202	1
9603	132077	130.738161137202	1
9603	133025	131.442095076991	6
9603	133196	131.546502171914	1
9603	133455	131.746502171914	1
9603	134330	132.44925012745	3
9603	134347	132.449951977512	0
9603	135825	133.749951977512	12
9604	142	20.100001	0.875
9604	441	20.600001	0.5
9604	1514	21.802038283435	-0.375
9604	1936	22.107254743947	0.75
9604	2213	22.300122	-0.875
9604	3770	23.503207511735	-0.875
9604	4019	23.703207511735	0.875
9604	4616	24.2232469889	0.75
9604	5189	24.625900504979	0.375
9604	5583	24.904841144523	-0.625
9604	5612	24.924261300767	0.25
9604	5877	25.126582619478	0.875
9604	5881	25.128632279242	0.125
9604	6931	26.028733279242	-0.25
9604	7921	26.828733279242	-0.125
9604	8936	27.63569412081	-0.125
9604	9845	28.243831395222	0.25
9604	10176	28.450497042703	0.875
9604	10967	28.955916991578	0.25
9604	11746	29.543185606796	0.75
9604	12478	30.143185606796	0.375
9604	12881	30.549925022843	0.625
9604	13340	30.950026022843	0.5
9604	13800	31.350026022843	0.625
9604	14449	31.859116433681	0.375
9604	14826	32.159116433681	0.75
9604	15751	32.97049241843	0.125
9604	16560	33.576526738946	0.375
9604	16977	33.88029240313	0.75
9604	18145	34.712807306028	0.625
9604	18174	34.71793529054	1
9604	19042	35.41793529054	0.25
9604	19543	35.82686366197	0.625
9604	20007	36.234078803172	0.625
9604	20632	36.742466475306	0.375
9604	21356	37.342466475306	0.125
9604	21510	37.453539366644	0.875
9604	22239	38.052200014678	0.25
9604	23412	38.954941628896	-0.25
9604	23783	39.354941628896	0.625
9604	24067	39.655086473982	0.75
9604	24195	39.755187473982	0.875
9604	24916	40.355187473982	0.375
9604	25203	40.558290092781	0.875
9604	25479	40.760985212449	0.75
9604	26323	41.541493329075	0.875
9604	26556	41.74879302818	0.875
9604	27084	42.151335425335	0.5
9604	27787	42.751335425335	0.375
9604	28092	43.05967723513	0.75
9604	28318	43.263673835284	0.875
9604	28735	43.666198072606	0.5
9604	28942	43.866198072606	0.875
9604	29406	44.273148367454	0.625
9604	29696	44.504443133299	0.875
9604	29876	44.612597170446	0.875
9604	30086	44.812597170446	0.875
9604	30896	45.539931643644	0.625
9604	31269	45.843067482051	0.625
9604	31620	46.143067482051	0.75
9604	32942	47.049661892526	-0.5
9604	33716	47.749661892526	0.25
9604	33887	47.861123014311	0.875
9604	34721	48.461123014311	0.125
9604	35760	49.266435416186	-0.125
9604	36935	50.272635142539	0.625
9604	37036	50.372782577051	-0.25
9604	37070	50.450461937694	-0.25
9604	38225	51.353655908102	-0.125
9604	39525	52.653655908102	-0.625
9604	40154	53.167472100993	0.625
9604	40740	53.661596518793	-0.25
9604	40891	53.771840853439	0.25
9604	40946	53.839663562991	0.375
9604	41107	53.969907701095	0.625
9604	41342	54.144582990072	0.75
9604	41634	54.377961110058	0.625
9604	41718	54.45427687416	0.75
9604	41907	54.587728363656	0
9604	42067	54.780286397567	-0.125
9604	42209	54.886095243985	0.875
9604	42847	55.528028633691	0.5
9604	42937	55.631330863095	0.875
9604	43407	56.131330863095	0.5
9604	43621	56.339713816009	0.875
9604	43729	56.47508513265	0.875
9604	44124	56.746045865702	0.625
9604	44252	56.854702240937	0.875
9604	44913	57.454702240937	0.375
9604	45634	58.055150821575	0.375
9604	45815	58.255446000169	0.875
9604	46653	59.16111168505	-0.125
9604	47508	59.96111168505	0.125
9604	48074	60.466914714824	0.5
9604	48520	60.770161166798	0.625
9604	49731	61.770262166798	-0.375
9604	50299	62.270262166798	0.5
9604	50632	62.57210619194	0.75
9604	51464	63.278772948316	0
9604	52555	64.275477539626	0.625
9604	52567	64.278772948316	-0.125
9604	52751	64.480279488874	0.875
9604	52755	64.483600260875	0.875
9604	53182	64.910817614313	0.5
9604	54855	66.315857402086	-1.125
9604	55395	66.715857402086	0.5
9604	55830	67.021204618176	0.875
9604	55977	67.118599376235	0.5
9604	56392	67.429091962045	0.625
9604	56413	67.449729821296	0.625
9604	56519	67.566174824148	-0.125
9604	56957	67.867392174792	0.625
9604	57389	68.267392174792	0.625
9604	57712	68.571265684535	0.75
9604	58039	68.871366684535	0.625
9604	58726	69.471366684535	0.25
9604	59226	69.879464861783	0.625
9604	59852	70.380264178741	0.375
9604	60444	70.893572095632	0.375
9604	60860	71.29646403424	0.75
9604	61776	71.99656503424	0.125
9604	62253	72.49656503424	0.5
9604	62633	72.8047055942	0.75
9604	62882	73.004962583252	0.75
9604	63496	73.504962583252	0.5
9604	64275	74.113482290811	0.375
9604	64510	74.313583290811	0.75
9604	64851	74.613583290811	0.75
9604	65487	75.120716745469	0.375
9604	66092	75.620716745469	0.5
9604	66316	75.826702415002	0.875
9604	66597	76.031475642655	0.875
9604	67276	76.638776681581	0.25
9604	67781	77.039257412722	0.5
9604	69095	78.039358412722	-0.25
9604	69868	78.639358412722	0.375
9604	70460	79.141657316904	0.5
9604	70718	79.296761089988	0.5
9604	70752	79.342974603961	0.75
9604	71039	79.58381431348	0.625
9604	71321	79.798248662854	0.375
9604	72489	80.698349662854	-0.375
9604	73087	81.198349662854	0.5
9604	73619	81.705104846325	0.5
9604	73740	81.81422030899	0.55555555224419
9604	73831	81.912228489249	0.875
9604	74870	82.816098597692	-0.125
9604	76225	83.916098597692	-0.375
9604	76499	84.12001292006	0.875
9604	76779	84.328820651074	0.875
9604	76798	84.330235509336	1
9604	77493	84.830235509336	0.5
9604	77916	85.140526269621	0.75
9604	78717	85.645723085676	0.375
9604	79036	85.852914034533	0.875
9604	79604	86.358077374765	0.375
9604	80277	86.863216392049	0.375
9604	80557	87.065137457175	0.875
9604	80597	87.117314034711	0.875
9604	80834	87.278396438973	0.875
9604	81182	87.578497438973	0.625
9604	81961	88.178497438973	0.25
9604	82990	89.087691477916	0
9604	83338	89.397830188256	0.75
9604	84138	90.104945343285	0.125
9604	84651	90.555716534608	0.875
9604	84933	90.760385435019	0.75
9604	85513	91.281160241506	0.5
9604	86280	91.888559301235	0.375
9604	86657	92.190226148199	0
9604	86669	92.192249605758	0.625
9604	86893	92.397904124157	0.875
9604	86896	92.401238745797	0.875
9604	87525	92.901339745797	0.375
9604	87899	93.201339745797	0.625
9604	88203	93.521219954514	0.75
9604	88509	93.83521674324	0.75
9604	88839	94.13531774324	0.625
9604	89146	94.43531774324	0.75
9604	89356	94.641863313397	0.875
9604	89903	95.051055795683	0.625
9604	90024	95.187881823361	0.625
9604	90777	95.796802980849	0.25
9604	91284	96.196802980849	0.5
9604	92568	97.195723463717	0.625
9604	92581	97.203893919261	-0.375
9604	92966	97.514857455248	0.625
9604	94202	98.514857455248	-0.125
9604	94422	98.697501980555	0.375
9604	94640	98.875704139767	0.875
9604	95386	99.475805139767	0.25
9604	95623	99.675805139767	0.75
9604	96263	100.178314117027	0.5
9604	96540	100.380942190481	0.875
9604	96638	100.448943942842	0.875
9604	96913	100.690679223707	0.75
9604	97103	100.851660332554	0.625
9604	97125	100.858822064863	0.625
9604	98384	101.865785225293	-0.375
9604	99053	102.465785225293	0.375
9604	99777	103.111799934696	0.75
9604	100194	103.511799934696	0.625
9604	100813	104.014762748343	0.375
9604	100916	104.096884387066	0.375
9604	100922	104.096984387066	0.5
9604	101463	104.600834248635	0.375
9604	102266	105.300834248635	0.25
9604	102482	105.501566292781	0.875
9604	102838	105.809616589585	0.75
9604	103730	106.512642358586	0.25
9604	103914	106.67414032854	0.125
9604	104119	106.814272445317	0.75
9604	104639	107.275211979179	0.125
9604	104844	107.431320261761	0.375
9604	105716	108.139591631729	0.125
9604	106885	109.139591631729	-0.125
9604	107299	109.444774753193	0.625
9604	107581	109.64996684855	0.875
9604	108202	110.252989015091	0.25
9604	108608	110.652989015091	0.5
9604	108832	110.857371272224	0.75
9604	109051	111.063953799964	0.75
9604	109252	111.266923675339	0.875
9604	110464	112.376424815262	-0.625
9604	110961	112.876424815262	0.25
9604	111152	113.079690677594	0.875
9604	111442	113.309119123904	0.875
9604	112125	113.811878203261	0.375
9604	113506	114.911878203261	-0.375
9604	114428	115.711982316462	-0.125
9604	114654	115.911982316462	0.875
9604	114900	116.134229092232	0.625
9604	115181	116.405636536323	0.625
9604	116384	117.405786265862	-0.375
9604	116944	117.91400491155	0.5
9604	117627	118.519806772691	0
9604	118373	119.119806772691	0.375
9604	119072	119.725117226982	0.25
9604	119287	119.938112049576	0.875
9604	119810	120.338723082251	0.5
9604	120411	120.838723082251	0.5
9604	120889	121.241674419759	0.375
9604	121098	121.441674419759	0.875
9604	121244	121.589446759701	0.875
9604	121323	121.643013811566	0.875
9604	121493	121.79752935887	0.875
9604	122270	122.40448813183	0.25
9604	123321	123.411934275263	-0.25
9604	123746	123.815009316733	0.625
9604	123807	123.866134305938	0.625
9604	124141	124.174286469582	0.5
9604	124697	124.574286469582	0.5
9604	125358	125.113985368267	0.125
9604	125725	125.416821112269	0.75
9604	126050	125.682311771684	-0.25
9604	126843	126.392056726251	0.125
9604	127528	126.992056726251	0.375
9604	128567	127.801712483899	0
9604	128929	128.112900122336	0
9604	128935	128.116506995404	0.75
9604	129400	128.518833709367	0.625
9604	129403	128.521228174536	0.625
9604	129703	128.722416420845	0.875
9604	129725	128.727271745904	0.875
9604	130635	129.527372745904	0
9604	131125	129.927372745904	0.625
9604	131427	130.231035387384	0.75
9604	131685	130.436378575992	0.875
9604	131689	130.438060137202	0.875
9604	131839	130.538161137202	0.875
9604	132077	130.738161137202	0.875
9604	133025	131.442095076991	0.25
9604	133196	131.546502171914	0.875
9604	133455	131.746502171914	0.875
9604	134330	132.44925012745	0.625
9604	134347	132.449951977512	1
9604	135825	133.749951977512	-0.5
9605	142	20.100001	0.1
9605	441	20.600001	0.5
9605	1514	21.802038283435	1.2
9605	1936	22.107254743947	0.3
9605	2213	22.300122	1.4
9605	3770	23.503207511735	1.2
9605	4019	23.703207511735	0.2
9605	4616	24.2232469889	0.3
9605	5189	24.625900504979	0.5
9605	5583	24.904841144523	1.2
9605	5612	24.924261300767	0.7
9605	5877	25.126582619478	0.2
9605	5881	25.128632279242	0.8
9605	6931	26.028733279242	0.9
9605	7921	26.828733279242	0.8
9605	8936	27.63569412081	0.8
9605	9845	28.243831395222	0.6
9605	10176	28.450497042703	0.2
9605	10967	28.955916991578	0.5
9605	11746	29.543185606796	0.2
9605	12478	30.143185606796	0.6
9605	12881	30.549925022843	0.4
9605	13340	30.950026022843	0.4
9605	13800	31.350026022843	0.4
9605	14449	31.859116433681	0.5
9605	14826	32.159116433681	0.3
9605	15751	32.97049241843	0.8
9605	16560	33.576526738946	0.6
9605	16977	33.88029240313	0.3
9605	18145	34.712807306028	0.4
9605	18174	34.71793529054	0
9605	19042	35.41793529054	0.7
9605	19543	35.82686366197	0.4
9605	20007	36.234078803172	0.4
9605	20632	36.742466475306	0.5
9605	21356	37.342466475306	0.6
9605	21510	37.453539366644	0.2
9605	22239	38.052200014678	0.7
9605	23412	38.954941628896	0.9
9605	23783	39.354941628896	0.4
9605	24067	39.655086473982	0.3
9605	24195	39.755187473982	0.1
9605	24916	40.355187473982	0.6
9605	25203	40.558290092781	0.2
9605	25479	40.760985212449	0.2
9605	26323	41.541493329075	0.1
9605	26556	41.74879302818	0.2
9605	27084	42.151335425335	0.4
9605	27787	42.751335425335	0.6
9605	28092	43.05967723513	0.3
9605	28318	43.263673835284	0.2
9605	28735	43.666198072606	0.4
9605	28942	43.866198072606	0.2
9605	29406	44.273148367454	0.4
9605	29696	44.504443133299	0.2
9605	29876	44.612597170446	0.1
9605	30086	44.812597170446	0.2
9605	30896	45.539931643644	0.4
9605	31269	45.843067482051	0.3
9605	31620	46.143067482051	0.3
9605	32942	47.049661892526	0.9
9605	33716	47.749661892526	0.7
9605	33887	47.861123014311	0.1
9605	34721	48.461123014311	0.6
9605	35760	49.266435416186	0.8
9605	36935	50.272635142539	0.4
9605	37036	50.372782577051	1.1
9605	37070	50.450461937694	1.1
9605	38225	51.353655908102	0.9
9605	39525	52.653655908102	1.3
9605	40154	53.167472100993	0.4
9605	40740	53.661596518793	1
9605	40891	53.771840853439	0.6
9605	40946	53.839663562991	0.5
9605	41107	53.969907701095	0.3
9605	41342	54.144582990072	0.3
9605	41634	54.377961110058	0.4
9605	41718	54.45427687416	0.3
9605	41907	54.587728363656	0.9
9605	42067	54.780286397567	1
9605	42209	54.886095243985	0.1
9605	42847	55.528028633691	0.4
9605	42937	55.631330863095	0.1
9605	43407	56.131330863095	0.5
9605	43621	56.339713816009	0.2
9605	43729	56.47508513265	0.2
9605	44124	56.746045865702	0.4
9605	44252	56.854702240937	0.1
9605	44913	57.454702240937	0.6
9605	45634	58.055150821575	0.6
9605	45815	58.255446000169	0.2
9605	46653	59.16111168505	0.9
9605	47508	59.96111168505	0.8
9605	48074	60.466914714824	0.5
9605	48520	60.770161166798	0.3
9605	49731	61.770262166798	1
9605	50299	62.270262166798	0.5
9605	50632	62.57210619194	0.3
9605	51464	63.278772948316	0.7
9605	52555	64.275477539626	0.4
9605	52567	64.278772948316	1
9605	52751	64.480279488874	0.2
9605	52755	64.483600260875	0.2
9605	53182	64.910817614313	0.4
9605	54855	66.315857402086	1.4
9605	55395	66.715857402086	0.4
9605	55830	67.021204618176	0.2
9605	55977	67.118599376235	0.4
9605	56392	67.429091962045	0.4
9605	56413	67.449729821296	0.4
9605	56519	67.566174824148	0.9
9605	56957	67.867392174792	0.3
9605	57389	68.267392174792	0.4
9605	57712	68.571265684535	0.3
9605	58039	68.871366684535	0.3
9605	58726	69.471366684535	0.6
9605	59226	69.879464861783	0.4
9605	59852	70.380264178741	0.5
9605	60444	70.893572095632	0.5
9605	60860	71.29646403424	0.3
9605	61776	71.99656503424	0.7
9605	62253	72.49656503424	0.5
9605	62633	72.8047055942	0.3
9605	62882	73.004962583252	0.2
9605	63496	73.504962583252	0.5
9605	64275	74.113482290811	0.6
9605	64510	74.313583290811	0.2
9605	64851	74.613583290811	0.3
9605	65487	75.120716745469	0.5
9605	66092	75.620716745469	0.5
9605	66316	75.826702415002	0.2
9605	66597	76.031475642655	0.2
9605	67276	76.638776681581	0.6
9605	67781	77.039257412722	0.4
9605	69095	78.039358412722	1
9605	69868	78.639358412722	0.6
9605	70460	79.141657316904	0.5
9605	70718	79.296761089988	0.5
9605	70752	79.342974603961	0.2
9605	71039	79.58381431348	0.4
9605	71321	79.798248662854	0.5
9605	72489	80.698349662854	0.9
9605	73087	81.198349662854	0.5
9605	73619	81.705104846325	0.5
9605	73740	81.81422030899	0.5
9605	73831	81.912228489249	0.2
9605	74870	82.816098597692	0.9
9605	76225	83.916098597692	1.1
9605	76499	84.12001292006	0.2
9605	76779	84.328820651074	0.2
9605	76798	84.330235509336	0
9605	77493	84.830235509336	0.5
9605	77916	85.140526269621	0.3
9605	78717	85.645723085676	0.5
9605	79036	85.852914034533	0.2
9605	79604	86.358077374765	0.5
9605	80277	86.863216392049	0.5
9605	80557	87.065137457175	0.2
9605	80597	87.117314034711	0.2
9605	80834	87.278396438973	0.2
9605	81182	87.578497438973	0.3
9605	81961	88.178497438973	0.6
9605	82990	89.087691477916	0.9
9605	83338	89.397830188256	0.3
9605	84138	90.104945343285	0.7
9605	84651	90.555716534608	0.2
9605	84933	90.760385435019	0.2
9605	85513	91.281160241506	0.5
9605	86280	91.888559301235	0.6
9605	86657	92.190226148199	0.8
9605	86669	92.192249605758	0.3
9605	86893	92.397904124157	0.2
9605	86896	92.401238745797	0.2
9605	87525	92.901339745797	0.5
9605	87899	93.201339745797	0.3
9605	88203	93.521219954514	0.3
9605	88509	93.83521674324	0.3
9605	88839	94.13531774324	0.3
9605	89146	94.43531774324	0.3
9605	89356	94.641863313397	0.2
9605	89903	95.051055795683	0.4
9605	90024	95.187881823361	0.4
9605	90777	95.796802980849	0.6
9605	91284	96.196802980849	0.4
9605	92568	97.195723463717	0.4
9605	92581	97.203893919261	1
9605	92966	97.514857455248	0.3
9605	94202	98.514857455248	1
9605	94422	98.697501980555	0.6
9605	94640	98.875704139767	0.2
9605	95386	99.475805139767	0.6
9605	95623	99.675805139767	0.2
9605	96263	100.178314117027	0.5
9605	96540	100.380942190481	0.2
9605	96638	100.448943942842	0.2
9605	96913	100.690679223707	0.3
9605	97103	100.851660332554	0.4
9605	97125	100.858822064863	0.4
9605	98384	101.865785225293	1
9605	99053	102.465785225293	0.6
9605	99777	103.111799934696	0.2
9605	100194	103.511799934696	0.4
9605	100813	104.014762748343	0.5
9605	100916	104.096884387066	0.5
9605	100922	104.096984387066	0.5