version 2
run Stability-125-20130526-18:55:33-1898
attr configname Stability
attr datetime 20130526-18:55:33
attr experiment Stability
attr inifile omnetpp.ini
attr iterationvars $0=1e-6
attr iterationvars2 "$0=1e-6, $repetition=5"
attr measurement $0=1e-6
attr network Network
attr processid 1898
attr repetition 5
attr replication #5
attr resultdir results
attr runnumber 125
attr seedset 125

vector 12221  Network.churner  inGoingSizeSig:vector  ETV
vector 12134  Network.dyn_peer[3]  lookupHopsSig:vector  ETV
vector 12135  Network.dyn_peer[3]  lookupStabilitySig:vector  ETV
vector 12136  Network.dyn_peer[3]  lookupTimeSig:vector  ETV
vector 12143  Network.dyn_peer[6]  lookupHopsSig:vector  ETV
vector 12144  Network.dyn_peer[6]  lookupStabilitySig:vector  ETV
vector 12145  Network.dyn_peer[6]  lookupTimeSig:vector  ETV
vector 12185  Network.dyn_peer[20]  lookupHopsSig:vector  ETV
vector 12186  Network.dyn_peer[20]  lookupStabilitySig:vector  ETV
vector 12187  Network.dyn_peer[20]  lookupTimeSig:vector  ETV
vector 12212  Network.dyn_peer[29]  lookupHopsSig:vector  ETV
vector 12213  Network.dyn_peer[29]  lookupStabilitySig:vector  ETV
vector 12214  Network.dyn_peer[29]  lookupTimeSig:vector  ETV
vector 12125  Network.dyn_peer[0]  lookupHopsSig:vector  ETV
vector 12126  Network.dyn_peer[0]  lookupStabilitySig:vector  ETV
vector 12127  Network.dyn_peer[0]  lookupTimeSig:vector  ETV
vector 12131  Network.dyn_peer[2]  lookupHopsSig:vector  ETV
vector 12132  Network.dyn_peer[2]  lookupStabilitySig:vector  ETV
vector 12133  Network.dyn_peer[2]  lookupTimeSig:vector  ETV
vector 12137  Network.dyn_peer[4]  lookupHopsSig:vector  ETV
vector 12138  Network.dyn_peer[4]  lookupStabilitySig:vector  ETV
vector 12139  Network.dyn_peer[4]  lookupTimeSig:vector  ETV
vector 12140  Network.dyn_peer[5]  lookupHopsSig:vector  ETV
vector 12141  Network.dyn_peer[5]  lookupStabilitySig:vector  ETV
vector 12142  Network.dyn_peer[5]  lookupTimeSig:vector  ETV
vector 12161  Network.dyn_peer[12]  lookupHopsSig:vector  ETV
vector 12162  Network.dyn_peer[12]  lookupStabilitySig:vector  ETV
vector 12163  Network.dyn_peer[12]  lookupTimeSig:vector  ETV
vector 12167  Network.dyn_peer[14]  lookupHopsSig:vector  ETV
vector 12168  Network.dyn_peer[14]  lookupStabilitySig:vector  ETV
vector 12169  Network.dyn_peer[14]  lookupTimeSig:vector  ETV
vector 12173  Network.dyn_peer[16]  lookupHopsSig:vector  ETV
vector 12174  Network.dyn_peer[16]  lookupStabilitySig:vector  ETV
vector 12175  Network.dyn_peer[16]  lookupTimeSig:vector  ETV
vector 12176  Network.dyn_peer[17]  lookupHopsSig:vector  ETV
vector 12177  Network.dyn_peer[17]  lookupStabilitySig:vector  ETV
vector 12178  Network.dyn_peer[17]  lookupTimeSig:vector  ETV
vector 12182  Network.dyn_peer[19]  lookupHopsSig:vector  ETV
vector 12183  Network.dyn_peer[19]  lookupStabilitySig:vector  ETV
vector 12184  Network.dyn_peer[19]  lookupTimeSig:vector  ETV
vector 12194  Network.dyn_peer[23]  lookupHopsSig:vector  ETV
vector 12195  Network.dyn_peer[23]  lookupStabilitySig:vector  ETV
vector 12196  Network.dyn_peer[23]  lookupTimeSig:vector  ETV
vector 12146  Network.dyn_peer[7]  lookupHopsSig:vector  ETV
vector 12147  Network.dyn_peer[7]  lookupStabilitySig:vector  ETV
vector 12148  Network.dyn_peer[7]  lookupTimeSig:vector  ETV
vector 12149  Network.dyn_peer[8]  lookupHopsSig:vector  ETV
vector 12150  Network.dyn_peer[8]  lookupStabilitySig:vector  ETV
vector 12151  Network.dyn_peer[8]  lookupTimeSig:vector  ETV
vector 12152  Network.dyn_peer[9]  lookupHopsSig:vector  ETV
vector 12153  Network.dyn_peer[9]  lookupStabilitySig:vector  ETV
vector 12154  Network.dyn_peer[9]  lookupTimeSig:vector  ETV
vector 12170  Network.dyn_peer[15]  lookupHopsSig:vector  ETV
vector 12171  Network.dyn_peer[15]  lookupStabilitySig:vector  ETV
vector 12172  Network.dyn_peer[15]  lookupTimeSig:vector  ETV
vector 12179  Network.dyn_peer[18]  lookupHopsSig:vector  ETV
vector 12180  Network.dyn_peer[18]  lookupStabilitySig:vector  ETV
vector 12181  Network.dyn_peer[18]  lookupTimeSig:vector  ETV
vector 12188  Network.dyn_peer[21]  lookupHopsSig:vector  ETV
vector 12189  Network.dyn_peer[21]  lookupStabilitySig:vector  ETV
vector 12190  Network.dyn_peer[21]  lookupTimeSig:vector  ETV
vector 12197  Network.dyn_peer[24]  lookupHopsSig:vector  ETV
vector 12198  Network.dyn_peer[24]  lookupStabilitySig:vector  ETV
vector 12199  Network.dyn_peer[24]  lookupTimeSig:vector  ETV
vector 12155  Network.dyn_peer[10]  lookupHopsSig:vector  ETV
vector 12156  Network.dyn_peer[10]  lookupStabilitySig:vector  ETV
vector 12157  Network.dyn_peer[10]  lookupTimeSig:vector  ETV
vector 12158  Network.dyn_peer[11]  lookupHopsSig:vector  ETV
vector 12159  Network.dyn_peer[11]  lookupStabilitySig:vector  ETV
vector 12160  Network.dyn_peer[11]  lookupTimeSig:vector  ETV
vector 12164  Network.dyn_peer[13]  lookupHopsSig:vector  ETV
vector 12165  Network.dyn_peer[13]  lookupStabilitySig:vector  ETV
vector 12166  Network.dyn_peer[13]  lookupTimeSig:vector  ETV
vector 12191  Network.dyn_peer[22]  lookupHopsSig:vector  ETV
vector 12192  Network.dyn_peer[22]  lookupStabilitySig:vector  ETV
vector 12193  Network.dyn_peer[22]  lookupTimeSig:vector  ETV
vector 12206  Network.dyn_peer[27]  lookupHopsSig:vector  ETV
vector 12207  Network.dyn_peer[27]  lookupStabilitySig:vector  ETV
vector 12208  Network.dyn_peer[27]  lookupTimeSig:vector  ETV
vector 12209  Network.dyn_peer[28]  lookupHopsSig:vector  ETV
vector 12210  Network.dyn_peer[28]  lookupStabilitySig:vector  ETV
vector 12211  Network.dyn_peer[28]  lookupTimeSig:vector  ETV
vector 12215  Network.dyn_peer[30]  lookupHopsSig:vector  ETV
vector 12216  Network.dyn_peer[30]  lookupStabilitySig:vector  ETV
vector 12217  Network.dyn_peer[30]  lookupTimeSig:vector  ETV
vector 12218  Network.dyn_peer[31]  lookupHopsSig:vector  ETV
vector 12219  Network.dyn_peer[31]  lookupStabilitySig:vector  ETV
vector 12220  Network.dyn_peer[31]  lookupTimeSig:vector  ETV
vector 12128  Network.dyn_peer[1]  lookupHopsSig:vector  ETV
vector 12129  Network.dyn_peer[1]  lookupStabilitySig:vector  ETV
vector 12130  Network.dyn_peer[1]  lookupTimeSig:vector  ETV
vector 12203  Network.dyn_peer[26]  lookupHopsSig:vector  ETV
vector 12204  Network.dyn_peer[26]  lookupStabilitySig:vector  ETV
vector 12205  Network.dyn_peer[26]  lookupTimeSig:vector  ETV
vector 12200  Network.dyn_peer[25]  lookupHopsSig:vector  ETV
vector 12201  Network.dyn_peer[25]  lookupStabilitySig:vector  ETV
vector 12202  Network.dyn_peer[25]  lookupTimeSig:vector  ETV
12125	141	20.100000001	1
12125	535	20.700000001	5
12125	992	21.202831826784	5
12125	1942	21.908173303555	7
12125	2374	22.208173303555	2
12125	2853	22.516647043996	2
12125	3464	23.018102182044	4
12125	3833	23.421596991919	3
12125	4329	23.925368419025	4
12125	5140	24.573056084549	3
12125	5403	24.829914326305	9
12125	5668	24.981863413285	3
12125	5883	25.135534786535	2
12125	6366	25.437445868142	3
12125	7027	25.937445868142	4
12125	7362	26.146088474346	1
12125	7552	26.327082022182	5
12125	7865	26.634763310117	3
12125	8063	26.834763310117	1
12125	8597	27.246949378798	3
12125	8668	27.280443443778	3
12125	8981	27.483023721518	2
12125	9126	27.616123453984	2
12125	9654	28.018416906565	4
12125	10079	28.418416906565	3
12125	10370	28.721726734784	2
12125	10525	28.826347107085	0
12125	11145	29.335875237298	4
12125	11157	29.364181388774	4
12125	11594	29.667524899916	2
12125	11894	29.838494639655	4
12125	12171	30.04334064342	1
12125	12876	30.54344064442	7
12125	13341	30.94344064442	3
12125	13818	31.358781904994	3
12125	13835	31.375850362088	3
12125	14706	32.081894460954	8
12125	15300	32.581894460954	5
12125	15497	32.68789738759	1
12125	15823	32.98789738759	3
12125	17693	34.59330101786	17
12125	18187	35.098411537143	4
12125	18283	35.192334502986	4
12125	18854	35.704702933348	5
12125	19190	35.99598067284	8
12125	19436	36.211972209702	5
12125	19537	36.307817910194	8
12125	19571	36.316349668402	0
12125	20011	36.716349668402	3
12125	20642	37.225591320833	4
12125	20857	37.437444110266	1
12125	21785	38.237544111266	9
12125	22547	38.951858153041	6
12125	22982	39.359350301281	4
12125	23488	39.860773307843	3
12125	23790	40.114640345579	16
12125	23901	40.166798557549	7
12125	23959	40.232520711244	4
12125	25238	41.1412241177	9
12125	25752	41.5412241177	3
12125	25887	41.64405855403	2
12125	26132	41.84415855503	2
12125	26633	42.24415855503	3
12125	27049	42.546736241924	2
12125	27069	42.565460110318	2
12125	27177	42.655800993885	5
12125	27313	42.773119888873	1
12125	28765	43.873834924486	12
12125	29845	44.773834924486	9
12125	30305	45.240946307997	3
12125	30449	45.377713513402	7
12125	30470	45.387363853357	0
12125	30933	45.887363853357	4
12125	31924	46.788645700034	8
12125	31939	46.788745701034	0
12125	32153	46.988745701034	1
12125	32458	47.289439003768	2
12125	32823	47.589539004768	3
12125	33223	47.989539004768	3
12125	33720	48.39650906395	3
12125	33862	48.49660906495	1
12125	34206	48.79660906495	2
12125	34451	49.007582263165	1
12125	34546	49.078837407754	1
12125	35313	49.68155435302	6
12125	35829	50.18155435302	4
12125	36144	50.491321770005	2
12125	36295	50.638841830177	2
12125	37008	51.244503866683	6
12125	37569	51.644503866683	3
12125	38803	52.687328033052	10
12125	39003	52.83160592233	6
12125	39380	53.13764031152	3
12125	39586	53.33764031152	1
12125	40291	54.047127695761	3
12125	40510	54.247227696761	2
12125	40964	54.547227696761	2
12125	41422	54.947251574274	3
12125	41901	55.36432577999	3
12125	42338	55.66442578099	4
12125	42650	55.86442578099	1
12125	43678	56.575792619691	6
12125	43779	56.66562260133	6
12125	43949	56.777068562121	1
12125	45112	57.782354016994	10
12125	45384	58.082354016994	2
12125	46632	59.117043854021	6
12125	47477	59.817043854021	6
12125	47704	60.023144628286	2
12125	48115	60.431589570382	3
12125	48746	60.892083561616	4
12125	48801	60.940379618225	4
12125	49315	61.340479619225	4
12125	50487	62.123401690107	3
12125	50718	62.323401690107	1
12125	51496	63.064345591701	3
12125	52461	63.864345591701	7
12125	53129	64.278119681497	3
12125	53157	64.287558967443	3
12125	53451	64.480254965896	3
12125	53634	64.592367399444	3
12125	54369	65.102360056611	6
12125	55394	65.802360056611	7
12125	56439	66.602410093064	6
12125	56608	66.709174899491	9
12125	56922	66.915236238163	1
12125	57091	67.01544382902	1
12125	57906	67.71544382902	7
12125	58555	68.326473968898	5
12125	58674	68.426573969898	1
12125	59413	69.026573969898	5
12125	60434	69.835352146741	7
12125	60820	70.137799542312	2
12125	61187	70.437899543312	3
12125	61451	70.637899543312	2
12125	61713	70.843389002639	2
12125	62530	71.543389002639	7
12125	62779	71.752551295075	1
12125	63185	72.059614756889	2
12125	63353	72.235219069437	2
12125	63381	72.257298357854	2
12125	63524	72.361513047924	1
12125	63885	72.661513047924	2
12125	64249	72.967443845437	2
12125	64462	73.171270932356	3
12125	64867	73.46990971109	4
12125	65136	73.675508951024	5
12125	65337	73.783327010655	2
12125	66803	74.883327010655	11
12125	67250	75.284606518842	4
12125	67843	75.840407055281	4
12125	68057	75.985062816137	6
12125	68076	75.992016560954	0
12125	69133	76.792016560954	7
12125	70263	77.601522237481	7
12125	70734	78.005538072697	3
12125	70903	78.193185387075	3
12125	70935	78.2105281926	1
12125	71187	78.410939117264	2
12125	71394	78.610939117264	1
12125	71969	79.115729540408	4
12125	72875	79.915829541408	9
12125	73751	80.615829541408	7
12125	74295	81.026097299269	5
12125	74400	81.115556558523	3
12125	74787	81.430694635578	3
12125	75024	81.635221761227	1
12125	75031	81.643810052694	1
12125	75370	81.938712357168	8
12125	77164	83.446193995865	18
12125	77777	83.946193995865	4
12125	78001	84.152520307817	1
12125	78737	84.662809162434	4
12125	79305	85.138343285068	5
12125	80106	85.765074392784	10
12125	80250	85.869442549739	13
12125	80281	85.915867482873	9
12125	80570	86.171457229594	2
12125	81122	86.671664877667	5
12125	81620	87.071664877667	3
12125	82201	87.580113794864	4
12125	82712	87.980213795864	4
12125	83714	88.780213795864	7
12125	84372	89.289242053836	4
12125	84951	89.738740132279	3
12125	85077	89.798316349175	5
12125	85347	90.045909310551	2
12125	85442	90.105054368585	2
12125	85857	90.45803647516	4
12125	86106	90.609073713332	4
12125	86164	90.663139897288	1
12125	86835	91.266911853123	6
12125	87050	91.466911853123	1
12125	87697	92.072445370584	5
12125	88178	92.484636576241	4
12125	88632	92.891206221999	3
12125	88954	93.170264288834	9
12125	89155	93.280186501008	4
12125	89175	93.291634407485	4
12125	89425	93.481303983114	1
12125	89486	93.520898113205	2
12125	89743	93.730309630332	7
12125	89796	93.780651150668	3
12125	89805	93.784968249951	2
12125	90454	94.285068250951	5
12125	90829	94.585068250951	2
12125	91518	95.089200363337	6
12125	92200	95.689200363337	5
12125	92790	96.297030023075	5
12125	93091	96.600652020074	6
12125	93726	97.10652869251	7
12125	93819	97.203890908089	5
12125	94114	97.5083008053	2
12125	94963	98.211892219523	8
12125	95199	98.411892219523	1
12125	95789	99.019043774434	5
12125	96429	99.623237518692	5
12125	97482	100.623337519692	11
12125	98581	101.432016481789	9
12125	98997	101.753628672538	2
12125	99272	101.961639946986	2
12125	100054	102.561639946986	6
12125	100634	103.070456244484	5
12125	101469	103.874477306669	7
12125	101677	104.082404185789	1
12125	102231	104.490495195917	4
12125	102660	104.856697352979	1
12125	102763	104.890495195917	3
12125	104582	106.198865599667	15
12125	104820	106.398865599667	1
12125	105375	106.89905884905	4
12125	105611	107.107105650054	1
12125	106191	107.584092815225	7
12125	106543	107.923617273491	2
12125	106727	108.090395523274	4
12125	107082	108.423917614321	13
12125	107084	108.425569294383	13
12125	107087	108.430791384595	5
12125	107390	108.731392540838	3
12125	107950	109.231392540838	4
12125	108296	109.539478908616	2
12125	108967	110.132209054987	3
12125	109345	110.440562521937	2
12125	109595	110.646182554235	2
12125	109970	110.946182554235	2
12125	110506	111.346616780454	3
12125	110756	111.546716781454	2
12125	110977	111.746716781454	1
12125	111323	112.053178203052	2
12125	112206	112.754555295767	7
12125	112978	113.354555295767	5
12125	113398	113.757180891812	3
12125	114095	114.36209490254	6
12125	114249	114.528929705646	10
12125	114481	114.686846656303	3
12125	114645	114.829371866707	2
12125	114692	114.860157537283	2
12125	114721	114.867449832925	4
12125	114848	114.969304717172	1
12125	115278	115.369304717172	3
12125	116140	116.178289716456	6
12125	117304	117.278289716456	10
12125	117929	117.881985555238	5
12125	118069	117.983169889495	1
12125	118895	118.683169889495	6
12125	119369	119.0848522982	3
12125	119526	119.193480501685	2
12125	120011	119.693480501685	4
12125	120673	120.193580502685	5
12125	121188	120.593580502685	5
12125	121466	120.796342494323	1
12125	121693	120.994811539389	1
12125	122514	121.604692629495	6
12125	123666	122.704692629495	10
12125	123972	123.005087735628	2
12125	124497	123.461675304763	5
12125	124816	123.772683515274	2
12125	125826	124.77363718744	12
12125	126257	125.17363718744	4
12125	127501	126.17373718844	10
12125	127701	126.37373718844	1
12125	127880	126.501688550542	1
12125	128206	126.81511378296	2
12125	128259	126.859019780837	4
12125	128616	127.17534879164	2
12125	128887	127.3844655304	2
12125	129780	128.0844655304	6
12125	130763	128.785860205429	4
12125	131045	128.99161147442	1
12125	132149	129.798754147791	11
12125	132643	130.198754147791	3
12125	132994	130.501954458834	2
12125	133297	130.811448970607	2
12125	134068	131.513138401192	8
12125	134292	131.713138401192	1
12125	135126	132.518924578668	7
12125	135604	133.041829948837	5
12125	136035	133.4586072052	3
12125	136226	133.658737788413	1
12125	136705	134.066790226939	5
12125	136888	134.266790226939	1
12125	137234	134.671532222918	3
12125	137476	135.074067443954	3
12125	137524	135.287180400213	1
12126	141	20.100000001	0.875
12126	535	20.700000001	0.375
12126	992	21.202831826784	0.375
12126	1942	21.908173303555	0.125
12126	2374	22.208173303555	0.75
12126	2853	22.516647043996	0.75
12126	3464	23.018102182044	0.5
12126	3833	23.421596991919	0.625
12126	4329	23.925368419025	0.5
12126	5140	24.573056084549	0.625
12126	5403	24.829914326305	-0.125
12126	5668	24.981863413285	0.625
12126	5883	25.135534786535	0.75
12126	6366	25.437445868142	0.625
12126	7027	25.937445868142	0.5
12126	7362	26.146088474346	0.875
12126	7552	26.327082022182	0.375
12126	7865	26.634763310117	0.625
12126	8063	26.834763310117	0.875
12126	8597	27.246949378798	0.66666665673256
12126	8668	27.280443443778	0.625
12126	8981	27.483023721518	0.75
12126	9126	27.616123453984	0.75
12126	9654	28.018416906565	0.5
12126	10079	28.418416906565	0.625
12126	10370	28.721726734784	0.75
12126	10525	28.826347107085	1
12126	11145	29.335875237298	0.5
12126	11157	29.364181388774	0.5
12126	11594	29.667524899916	0.75
12126	11894	29.838494639655	0.5
12126	12171	30.04334064342	0.875
12126	12876	30.54344064442	0.125
12126	13341	30.94344064442	0.625
12126	13818	31.358781904994	0.625
12126	13835	31.375850362088	0.625
12126	14706	32.081894460954	0
12126	15300	32.581894460954	0.375
12126	15497	32.68789738759	0.875
12126	15823	32.98789738759	0.625
12126	17693	34.59330101786	-1.125
12126	18187	35.098411537143	0.5
12126	18283	35.192334502986	0.5
12126	18854	35.704702933348	0.375
12126	19190	35.99598067284	0
12126	19436	36.211972209702	0.375
12126	19537	36.307817910194	0
12126	19571	36.316349668402	1
12126	20011	36.716349668402	0.625
12126	20642	37.225591320833	0.5
12126	20857	37.437444110266	0.875
12126	21785	38.237544111266	-0.125
12126	22547	38.951858153041	0.25
12126	22982	39.359350301281	0.5
12126	23488	39.860773307843	0.625
12126	23790	40.114640345579	-1
12126	23901	40.166798557549	0.125
12126	23959	40.232520711244	0.5
12126	25238	41.1412241177	-0.125
12126	25752	41.5412241177	0.625
12126	25887	41.64405855403	0.75
12126	26132	41.84415855503	0.75
12126	26633	42.24415855503	0.625
12126	27049	42.546736241924	0.75
12126	27069	42.565460110318	0.75
12126	27177	42.655800993885	0.375
12126	27313	42.773119888873	0.875
12126	28765	43.873834924486	-0.5
12126	29845	44.773834924486	-0.125
12126	30305	45.240946307997	0.625
12126	30449	45.377713513402	0.125
12126	30470	45.387363853357	1
12126	30933	45.887363853357	0.5
12126	31924	46.788645700034	0
12126	31939	46.788745701034	1
12126	32153	46.988745701034	0.875
12126	32458	47.289439003768	0.75
12126	32823	47.589539004768	0.625
12126	33223	47.989539004768	0.625
12126	33720	48.39650906395	0.625
12126	33862	48.49660906495	0.875
12126	34206	48.79660906495	0.75
12126	34451	49.007582263165	0.875
12126	34546	49.078837407754	0.875
12126	35313	49.68155435302	0.25
12126	35829	50.18155435302	0.5
12126	36144	50.491321770005	0.75
12126	36295	50.638841830177	0.75
12126	37008	51.244503866683	0.25
12126	37569	51.644503866683	0.625
12126	38803	52.687328033052	-0.25
12126	39003	52.83160592233	0.25
12126	39380	53.13764031152	0.625
12126	39586	53.33764031152	0.875
12126	40291	54.047127695761	0.625
12126	40510	54.247227696761	0.75
12126	40964	54.547227696761	0.75
12126	41422	54.947251574274	0.625
12126	41901	55.36432577999	0.625
12126	42338	55.66442578099	0.5
12126	42650	55.86442578099	0.875
12126	43678	56.575792619691	0.25
12126	43779	56.66562260133	0.25
12126	43949	56.777068562121	0.875
12126	45112	57.782354016994	-0.25
12126	45384	58.082354016994	0.75
12126	46632	59.117043854021	0.25
12126	47477	59.817043854021	0.25
12126	47704	60.023144628286	0.75
12126	48115	60.431589570382	0.625
12126	48746	60.892083561616	0.5
12126	48801	60.940379618225	0.5
12126	49315	61.340479619225	0.5
12126	50487	62.123401690107	0.625
12126	50718	62.323401690107	0.875
12126	51496	63.064345591701	0.625
12126	52461	63.864345591701	0.125
12126	53129	64.278119681497	0.625
12126	53157	64.287558967443	0.625
12126	53451	64.480254965896	0.625
12126	53634	64.592367399444	0.625
12126	54369	65.102360056611	0.25
12126	55394	65.802360056611	0.125
12126	56439	66.602410093064	0.25
12126	56608	66.709174899491	-0.125
12126	56922	66.915236238163	0.875
12126	57091	67.01544382902	0.875
12126	57906	67.71544382902	0.125
12126	58555	68.326473968898	0.375
12126	58674	68.426573969898	0.875
12126	59413	69.026573969898	0.375
12126	60434	69.835352146741	0.125
12126	60820	70.137799542312	0.75
12126	61187	70.437899543312	0.625
12126	61451	70.637899543312	0.75
12126	61713	70.843389002639	0.75
12126	62530	71.543389002639	0.125
12126	62779	71.752551295075	0.875
12126	63185	72.059614756889	0.75
12126	63353	72.235219069437	0.75
12126	63381	72.257298357854	0.75
12126	63524	72.361513047924	0.875
12126	63885	72.661513047924	0.75
12126	64249	72.967443845437	0.75
12126	64462	73.171270932356	0.625
12126	64867	73.46990971109	0.5
12126	65136	73.675508951024	0.375
12126	65337	73.783327010655	0.75
12126	66803	74.883327010655	-0.375
12126	67250	75.284606518842	0.5
12126	67843	75.840407055281	0.5
12126	68057	75.985062816137	0.25
12126	68076	75.992016560954	1
12126	69133	76.792016560954	0.125
12126	70263	77.601522237481	0.125
12126	70734	78.005538072697	0.625
12126	70903	78.193185387075	0.625
12126	70935	78.2105281926	0.875
12126	71187	78.410939117264	0.75
12126	71394	78.610939117264	0.875
12126	71969	79.115729540408	0.5
12126	72875	79.915829541408	-0.125
12126	73751	80.615829541408	0.125
12126	74295	81.026097299269	0.375
12126	74400	81.115556558523	0.625
12126	74787	81.430694635578	0.625
12126	75024	81.635221761227	0.875
12126	75031	81.643810052694	0.875
12126	75370	81.938712357168	0
12126	77164	83.446193995865	-1.25
12126	77777	83.946193995865	0.5
12126	78001	84.152520307817	0.875
12126	78737	84.662809162434	0.5
12126	79305	85.138343285068	0.375
12126	80106	85.765074392784	-0.25
12126	80250	85.869442549739	-0.625
12126	80281	85.915867482873	-0.125
12126	80570	86.171457229594	0.75
12126	81122	86.671664877667	0.375
12126	81620	87.071664877667	0.625
12126	82201	87.580113794864	0.5
12126	82712	87.980213795864	0.5
12126	83714	88.780213795864	0.125
12126	84372	89.289242053836	0.5
12126	84951	89.738740132279	0.625
12126	85077	89.798316349175	0.375
12126	85347	90.045909310551	0.75
12126	85442	90.105054368585	0.75
12126	85857	90.45803647516	0.5
12126	86106	90.609073713332	0.5
12126	86164	90.663139897288	0.875
12126	86835	91.266911853123	0.25
12126	87050	91.466911853123	0.875
12126	87697	92.072445370584	0.375
12126	88178	92.484636576241	0.5
12126	88632	92.891206221999	0.625
12126	88954	93.170264288834	-0.125
12126	89155	93.280186501008	0.5
12126	89175	93.291634407485	0.5
12126	89425	93.481303983114	0.875
12126	89486	93.520898113205	0.75
12126	89743	93.730309630332	0.125
12126	89796	93.780651150668	0.625
12126	89805	93.784968249951	0.75
12126	90454	94.285068250951	0.375
12126	90829	94.585068250951	0.75
12126	91518	95.089200363337	0.25
12126	92200	95.689200363337	0.375
12126	92790	96.297030023075	0.375
12126	93091	96.600652020074	0.25
12126	93726	97.10652869251	0.125
12126	93819	97.203890908089	0.375
12126	94114	97.5083008053	0.75
12126	94963	98.211892219523	0
12126	95199	98.411892219523	0.875
12126	95789	99.019043774434	0.375
12126	96429	99.623237518692	0.375
12126	97482	100.623337519692	-0.375
12126	98581	101.432016481789	-0.125
12126	98997	101.753628672538	0.75
12126	99272	101.961639946986	0.75
12126	100054	102.561639946986	0.25
12126	100634	103.070456244484	0.375
12126	101469	103.874477306669	0.125
12126	101677	104.082404185789	0.875
12126	102231	104.490495195917	0.5
12126	102660	104.856697352979	0.875
12126	102763	104.890495195917	0.625
12126	104582	106.198865599667	-0.875
12126	104820	106.398865599667	0.875
12126	105375	106.89905884905	0.5
12126	105611	107.107105650054	0.875
12126	106191	107.584092815225	0.125
12126	106543	107.923617273491	0.75
12126	106727	108.090395523274	0.5
12126	107082	108.423917614321	-0.625
12126	107084	108.425569294383	-0.625
12126	107087	108.430791384595	0.375
12126	107390	108.731392540838	0.625
12126	107950	109.231392540838	0.5
12126	108296	109.539478908616	0.75
12126	108967	110.132209054987	0.625
12126	109345	110.440562521937	0.75
12126	109595	110.646182554235	0.77777777612209
12126	109970	110.946182554235	0.75
12126	110506	111.346616780454	0.625
12126	110756	111.546716781454	0.75
12126	110977	111.746716781454	0.875
12126	111323	112.053178203052	0.75
12126	112206	112.754555295767	0.125
12126	112978	113.354555295767	0.375
12126	113398	113.757180891812	0.625
12126	114095	114.36209490254	0.25
12126	114249	114.528929705646	-0.25
12126	114481	114.686846656303	0.625
12126	114645	114.829371866707	0.75
12126	114692	114.860157537283	0.75
12126	114721	114.867449832925	0.5
12126	114848	114.969304717172	0.875
12126	115278	115.369304717172	0.625
12126	116140	116.178289716456	0.25
12126	117304	117.278289716456	-0.25
12126	117929	117.881985555238	0.375
12126	118069	117.983169889495	0.875
12126	118895	118.683169889495	0.25
12126	119369	119.0848522982	0.625
12126	119526	119.193480501685	0.75
12126	120011	119.693480501685	0.5
12126	120673	120.193580502685	0.375
12126	121188	120.593580502685	0.375
12126	121466	120.796342494323	0.875
12126	121693	120.994811539389	0.875
12126	122514	121.604692629495	0.25
12126	123666	122.704692629495	-0.25
12126	123972	123.005087735628	0.75
12126	124497	123.461675304763	0.375
12126	124816	123.772683515274	0.75
12126	125826	124.77363718744	-0.5
12126	126257	125.17363718744	0.5
12126	127501	126.17373718844	-0.25
12126	127701	126.37373718844	0.875
12126	127880	126.501688550542	0.875
12126	128206	126.81511378296	0.75
12126	128259	126.859019780837	0.5
12126	128616	127.17534879164	0.75
12126	128887	127.3844655304	0.75
12126	129780	128.0844655304	0.25
12126	130763	128.785860205429	0.5
12126	131045	128.99161147442	0.875
12126	132149	129.798754147791	-0.375
12126	132643	130.198754147791	0.625
12126	132994	130.501954458834	0.75
12126	133297	130.811448970607	0.75
12126	134068	131.513138401192	0
12126	134292	131.713138401192	0.875
12126	135126	132.518924578668	0.125
12126	135604	133.041829948837	0.375
12126	136035	133.4586072052	0.625
12126	136226	133.658737788413	0.875
12126	136705	134.066790226939	0.375
12126	136888	134.266790226939	0.875
12126	137234	134.671532222918	0.625
12126	137476	135.074067443954	0.625
12126	137524	135.287180400213	0.875
12127	141	20.100000001	0.1
12127	535	20.700000001	0.6
12127	992	21.202831826784	0.6
12127	1942	21.908173303555	0.7
12127	2374	22.208173303555	0.3
12127	2853	22.516647043996	0.3
12127	3464	23.018102182044	0.5
12127	3833	23.421596991919	0.4
12127	4329	23.925368419025	0.5
12127	5140	24.573056084549	0.4
12127	5403	24.829914326305	0.9
12127	5668	24.981863413285	0.4
12127	5883	25.135534786535	0.3
12127	6366	25.437445868142	0.3
12127	7027	25.937445868142	0.5
12127	7362	26.146088474346	0.2
12127	7552	26.327082022182	0.6
12127	7865	26.634763310117	0.3
12127	8063	26.834763310117	0.2
12127	8597	27.246949378798	0.4
12127	8668	27.280443443778	0.3
12127	8981	27.483023721518	0.2
12127	9126	27.616123453984	0.3
12127	9654	28.018416906565	0.4
12127	10079	28.418416906565	0.4
12127	10370	28.721726734784	0.3
12127	10525	28.826347107085	0.1
12127	11145	29.335875237298	0.5
12127	11157	29.364181388774	0.5
12127	11594	29.667524899916	0.3
12127	11894	29.838494639655	0.5
12127	12171	30.04334064342	0.2
12127	12876	30.54344064442	0.5
12127	13341	30.94344064442	0.4
12127	13818	31.358781904994	0.4
12127	13835	31.375850362088	0.4
12127	14706	32.081894460954	0.7
12127	15300	32.581894460954	0.5
12127	15497	32.68789738759	0.1
12127	15823	32.98789738759	0.3
12127	17693	34.59330101786	1.6
12127	18187	35.098411537143	0.5
12127	18283	35.192334502986	0.5
12127	18854	35.704702933348	0.6
12127	19190	35.99598067284	0.8
12127	19436	36.211972209702	0.5
12127	19537	36.307817910194	0.7
12127	19571	36.316349668402	0
12127	20011	36.716349668402	0.4
12127	20642	37.225591320833	0.5
12127	20857	37.437444110266	0.2
12127	21785	38.237544111266	0.8
12127	22547	38.951858153041	0.7
12127	22982	39.359350301281	0.4
12127	23488	39.860773307843	0.4
12127	23790	40.114640345579	1.5
12127	23901	40.166798557549	0.8
12127	23959	40.232520711244	0.5
12127	25238	41.1412241177	0.9
12127	25752	41.5412241177	0.4
12127	25887	41.64405855403	0.3
12127	26132	41.84415855503	0.2
12127	26633	42.24415855503	0.4
12127	27049	42.546736241924	0.3
12127	27069	42.565460110318	0.3
12127	27177	42.655800993885	0.6
12127	27313	42.773119888873	0.2
12127	28765	43.873834924486	1.1
12127	29845	44.773834924486	0.9
12127	30305	45.240946307997	0.4
12127	30449	45.377713513402	0.6
12127	30470	45.387363853357	0
12127	30933	45.887363853357	0.5
12127	31924	46.788645700034	0.9
12127	31939	46.788745701034	0
12127	32153	46.988745701034	0.2
12127	32458	47.289439003768	0.3
12127	32823	47.589539004768	0.3
12127	33223	47.989539004768	0.4
12127	33720	48.39650906395	0.4
12127	33862	48.49660906495	0.1
12127	34206	48.79660906495	0.3
12127	34451	49.007582263165	0.2
12127	34546	49.078837407754	0.2
12127	35313	49.68155435302	0.6
12127	35829	50.18155435302	0.5
12127	36144	50.491321770005	0.3
12127	36295	50.638841830177	0.3
12127	37008	51.244503866683	0.6
12127	37569	51.644503866683	0.4
12127	38803	52.687328033052	1.1
12127	39003	52.83160592233	0.7
12127	39380	53.13764031152	0.3
12127	39586	53.33764031152	0.2
12127	40291	54.047127695761	0.4
12127	40510	54.247227696761	0.2
12127	40964	54.547227696761	0.3
12127	41422	54.947251574274	0.4
12127	41901	55.36432577999	0.4
12127	42338	55.66442578099	0.3
12127	42650	55.86442578099	0.2
12127	43678	56.575792619691	0.7
12127	43779	56.66562260133	0.7
12127	43949	56.777068562121	0.2
12127	45112	57.782354016994	1
12127	45384	58.082354016994	0.3
12127	46632	59.117043854021	0.6
12127	47477	59.817043854021	0.7
12127	47704	60.023144628286	0.2
12127	48115	60.431589570382	0.4
12127	48746	60.892083561616	0.5
12127	48801	60.940379618225	0.5
12127	49315	61.340479619225	0.4
12127	50487	62.123401690107	0.3
12127	50718	62.323401690107	0.2
12127	51496	63.064345591701	0.3
12127	52461	63.864345591701	0.8
12127	53129	64.278119681497	0.4
12127	53157	64.287558967443	0.4
12127	53451	64.480254965896	0.4
12127	53634	64.592367399444	0.3
12127	54369	65.102360056611	0.5
12127	55394	65.802360056611	0.7
12127	56439	66.602410093064	0.7
12127	56608	66.709174899491	0.9
12127	56922	66.915236238163	0.2