version 2
run Stability-98-20130526-18:53:41-1898
attr configname Stability
attr datetime 20130526-18:53:41
attr experiment Stability
attr inifile omnetpp.ini
attr iterationvars $0=1e-3
attr iterationvars2 "$0=1e-3, $repetition=8"
attr measurement $0=1e-3
attr network Network
attr processid 1898
attr repetition 8
attr replication #8
attr resultdir results
attr runnumber 98
attr seedset 98

vector 9602  Network.churner  inGoingSizeSig:vector  ETV
vector 9521  Network.dyn_peer[5]  lookupHopsSig:vector  ETV
vector 9522  Network.dyn_peer[5]  lookupStabilitySig:vector  ETV
vector 9523  Network.dyn_peer[5]  lookupTimeSig:vector  ETV
vector 9530  Network.dyn_peer[8]  lookupHopsSig:vector  ETV
vector 9531  Network.dyn_peer[8]  lookupStabilitySig:vector  ETV
vector 9532  Network.dyn_peer[8]  lookupTimeSig:vector  ETV
vector 9545  Network.dyn_peer[13]  lookupHopsSig:vector  ETV
vector 9546  Network.dyn_peer[13]  lookupStabilitySig:vector  ETV
vector 9547  Network.dyn_peer[13]  lookupTimeSig:vector  ETV
vector 9506  Network.dyn_peer[0]  lookupHopsSig:vector  ETV
vector 9507  Network.dyn_peer[0]  lookupStabilitySig:vector  ETV
vector 9508  Network.dyn_peer[0]  lookupTimeSig:vector  ETV
vector 9509  Network.dyn_peer[1]  lookupHopsSig:vector  ETV
vector 9510  Network.dyn_peer[1]  lookupStabilitySig:vector  ETV
vector 9511  Network.dyn_peer[1]  lookupTimeSig:vector  ETV
vector 9512  Network.dyn_peer[2]  lookupHopsSig:vector  ETV
vector 9513  Network.dyn_peer[2]  lookupStabilitySig:vector  ETV
vector 9514  Network.dyn_peer[2]  lookupTimeSig:vector  ETV
vector 9515  Network.dyn_peer[3]  lookupHopsSig:vector  ETV
vector 9516  Network.dyn_peer[3]  lookupStabilitySig:vector  ETV
vector 9517  Network.dyn_peer[3]  lookupTimeSig:vector  ETV
vector 9533  Network.dyn_peer[9]  lookupHopsSig:vector  ETV
vector 9534  Network.dyn_peer[9]  lookupStabilitySig:vector  ETV
vector 9535  Network.dyn_peer[9]  lookupTimeSig:vector  ETV
vector 9554  Network.dyn_peer[16]  lookupHopsSig:vector  ETV
vector 9555  Network.dyn_peer[16]  lookupStabilitySig:vector  ETV
vector 9556  Network.dyn_peer[16]  lookupTimeSig:vector  ETV
vector 9566  Network.dyn_peer[20]  lookupHopsSig:vector  ETV
vector 9567  Network.dyn_peer[20]  lookupStabilitySig:vector  ETV
vector 9568  Network.dyn_peer[20]  lookupTimeSig:vector  ETV
vector 9584  Network.dyn_peer[26]  lookupHopsSig:vector  ETV
vector 9585  Network.dyn_peer[26]  lookupStabilitySig:vector  ETV
vector 9586  Network.dyn_peer[26]  lookupTimeSig:vector  ETV
vector 9587  Network.dyn_peer[27]  lookupHopsSig:vector  ETV
vector 9588  Network.dyn_peer[27]  lookupStabilitySig:vector  ETV
vector 9589  Network.dyn_peer[27]  lookupTimeSig:vector  ETV
vector 9518  Network.dyn_peer[4]  lookupHopsSig:vector  ETV
vector 9519  Network.dyn_peer[4]  lookupStabilitySig:vector  ETV
vector 9520  Network.dyn_peer[4]  lookupTimeSig:vector  ETV
vector 9536  Network.dyn_peer[10]  lookupHopsSig:vector  ETV
vector 9537  Network.dyn_peer[10]  lookupStabilitySig:vector  ETV
vector 9538  Network.dyn_peer[10]  lookupTimeSig:vector  ETV
vector 9551  Network.dyn_peer[15]  lookupHopsSig:vector  ETV
vector 9552  Network.dyn_peer[15]  lookupStabilitySig:vector  ETV
vector 9553  Network.dyn_peer[15]  lookupTimeSig:vector  ETV
vector 9575  Network.dyn_peer[23]  lookupHopsSig:vector  ETV
vector 9576  Network.dyn_peer[23]  lookupStabilitySig:vector  ETV
vector 9577  Network.dyn_peer[23]  lookupTimeSig:vector  ETV
vector 9578  Network.dyn_peer[24]  lookupHopsSig:vector  ETV
vector 9579  Network.dyn_peer[24]  lookupStabilitySig:vector  ETV
vector 9580  Network.dyn_peer[24]  lookupTimeSig:vector  ETV
vector 9581  Network.dyn_peer[25]  lookupHopsSig:vector  ETV
vector 9582  Network.dyn_peer[25]  lookupStabilitySig:vector  ETV
vector 9583  Network.dyn_peer[25]  lookupTimeSig:vector  ETV
vector 9524  Network.dyn_peer[6]  lookupHopsSig:vector  ETV
vector 9525  Network.dyn_peer[6]  lookupStabilitySig:vector  ETV
vector 9526  Network.dyn_peer[6]  lookupTimeSig:vector  ETV
vector 9527  Network.dyn_peer[7]  lookupHopsSig:vector  ETV
vector 9528  Network.dyn_peer[7]  lookupStabilitySig:vector  ETV
vector 9529  Network.dyn_peer[7]  lookupTimeSig:vector  ETV
vector 9542  Network.dyn_peer[12]  lookupHopsSig:vector  ETV
vector 9543  Network.dyn_peer[12]  lookupStabilitySig:vector  ETV
vector 9544  Network.dyn_peer[12]  lookupTimeSig:vector  ETV
vector 9560  Network.dyn_peer[18]  lookupHopsSig:vector  ETV
vector 9561  Network.dyn_peer[18]  lookupStabilitySig:vector  ETV
vector 9562  Network.dyn_peer[18]  lookupTimeSig:vector  ETV
vector 9563  Network.dyn_peer[19]  lookupHopsSig:vector  ETV
vector 9564  Network.dyn_peer[19]  lookupStabilitySig:vector  ETV
vector 9565  Network.dyn_peer[19]  lookupTimeSig:vector  ETV
vector 9569  Network.dyn_peer[21]  lookupHopsSig:vector  ETV
vector 9570  Network.dyn_peer[21]  lookupStabilitySig:vector  ETV
vector 9571  Network.dyn_peer[21]  lookupTimeSig:vector  ETV
vector 9572  Network.dyn_peer[22]  lookupHopsSig:vector  ETV
vector 9573  Network.dyn_peer[22]  lookupStabilitySig:vector  ETV
vector 9574  Network.dyn_peer[22]  lookupTimeSig:vector  ETV
vector 9593  Network.dyn_peer[29]  lookupHopsSig:vector  ETV
vector 9594  Network.dyn_peer[29]  lookupStabilitySig:vector  ETV
vector 9595  Network.dyn_peer[29]  lookupTimeSig:vector  ETV
vector 9590  Network.dyn_peer[28]  lookupHopsSig:vector  ETV
vector 9591  Network.dyn_peer[28]  lookupStabilitySig:vector  ETV
vector 9592  Network.dyn_peer[28]  lookupTimeSig:vector  ETV
vector 9596  Network.dyn_peer[30]  lookupHopsSig:vector  ETV
vector 9597  Network.dyn_peer[30]  lookupStabilitySig:vector  ETV
vector 9598  Network.dyn_peer[30]  lookupTimeSig:vector  ETV
vector 9599  Network.dyn_peer[31]  lookupHopsSig:vector  ETV
vector 9600  Network.dyn_peer[31]  lookupStabilitySig:vector  ETV
vector 9601  Network.dyn_peer[31]  lookupTimeSig:vector  ETV
vector 9539  Network.dyn_peer[11]  lookupHopsSig:vector  ETV
vector 9540  Network.dyn_peer[11]  lookupStabilitySig:vector  ETV
vector 9541  Network.dyn_peer[11]  lookupTimeSig:vector  ETV
vector 9548  Network.dyn_peer[14]  lookupHopsSig:vector  ETV
vector 9549  Network.dyn_peer[14]  lookupStabilitySig:vector  ETV
vector 9550  Network.dyn_peer[14]  lookupTimeSig:vector  ETV
vector 9557  Network.dyn_peer[17]  lookupHopsSig:vector  ETV
vector 9558  Network.dyn_peer[17]  lookupStabilitySig:vector  ETV
vector 9559  Network.dyn_peer[17]  lookupTimeSig:vector  ETV
9506	136	20.100001	1
9506	261	20.300001	1
9506	482	20.605923398313	2
9506	702	20.911385063516	2
9506	1512	21.618011740984	6
9506	1817	21.819560552683	2
9506	2575	22.411951498525	2
9506	3230	23.011951498525	5
9506	4353	24.023965546101	10
9506	4673	24.333846016385	2
9506	5134	24.739892128871	3
9506	5802	25.249118204781	5
9506	6383	25.749118204781	4
9506	6653	25.953398408997	1
9506	6703	25.960715837087	1
9506	7421	26.560560526428	5
9506	8383	27.261638764125	7
9506	8877	27.761739764125	5
9506	9274	28.170790379286	4
9506	9307	28.249898843745	2
9506	9681	28.653436478411	4
9506	10342	29.353436478411	6
9506	10911	29.86149165586	4
9506	11538	30.469334776293	5
9506	11901	30.776744511086	2
9506	12315	31.126552626065	2
9506	12363	31.183859712479	3
9506	13050	31.793100475452	6
9506	13145	31.889969173112	5
9506	13234	31.933082196796	7
9506	13258	31.93756284264	0
9506	15038	33.33756284264	17
9506	15393	33.647331711664	2
9506	15452	33.690268153619	2
9506	16327	34.448363865264	7
9506	17007	35.048464865264	6
9506	17277	35.248464865264	1
9506	17607	35.551688720836	2
9506	17847	35.751789720836	2
9506	18791	36.551789720836	8
9506	19231	36.95957541963	4
9506	20087	37.65957541963	7
9506	20194	37.750691914295	3
9506	20411	37.961480654474	2
9506	20815	38.253377108703	4
9506	20839	38.269794874278	3
9506	21101	38.470853266904	3
9506	21405	38.680587858913	1
9506	21677	38.895714928685	1
9506	21863	39.074833860819	1
9506	22146	39.2834483259	0
9506	22596	39.5834483259	2
9506	23249	40.091844407354	4
9506	23797	40.497350812094	7
9506	24398	41.096569671192	9
9506	24404	41.097450812094	9
9506	24443	41.112999491587	5
9506	25610	42.118258890616	10
9506	26603	42.918258890616	8
9506	27363	43.626660834971	6
9506	27811	44.018360736126	3
9506	27956	44.118461736126	1
9506	28954	45.018461736126	8
9506	29090	45.127454738332	2
9506	29431	45.424076644612	3
9506	29439	45.429757331108	3
9506	29702	45.635638957014	1
9506	29705	45.636442344525	1
9506	30156	45.936543344525	3
9506	30510	46.236543344525	2
9506	30679	46.345783682186	1
9506	31030	46.655983756198	2
9506	31236	46.799128998005	4
9506	31272	46.86003800144	1
9506	31877	47.266755542154	4
9506	33032	48.166755542154	9
9506	33842	48.773730679826	6
9506	34815	49.478688948951	7
9506	34885	49.492472854165	7
9506	35071	49.641011841912	4
9506	35537	50.045062479436	4
9506	36100	50.545062479436	4
9506	37487	51.645163479436	12
9506	37917	52.045163479436	3
9506	38396	52.449172223592	3
9506	38653	52.689043902433	3
9506	38883	52.851396863397	4
9506	39339	53.195156807077	5
9506	39389	53.233469370608	4
9506	40419	54.042655913144	9
9506	40729	54.342655913144	2
9506	42065	55.448500423721	13
9506	42499	55.751464713787	2
9506	42817	55.953039599869	2
9506	43355	56.359767479465	4
9506	43582	56.56638603028	1
9506	44213	57.179257657731	3
9506	45685	58.524945843773	7
9506	45738	58.579257657731	14
9506	45958	58.785843768085	1
9506	46479	59.192654743681	4
9506	46778	59.426464721007	9
9506	46845	59.488419209029	6
9506	47733	60.294768124032	11
9506	48496	60.894768124032	7
9506	49893	61.942276443206	10
9506	49904	61.963488731618	10
9506	50537	62.445220925107	4
9506	50696	62.59338428725	2
9506	50887	62.766665588587	8
9506	50927	62.794063590948	1
9506	51506	63.200231110933	4
9506	52693	64.100231110933	8
9506	53301	64.53210096516	2
9506	53570	64.737458741276	2
9506	53641	64.804839303858	7
9506	53794	64.932145158732	1
9506	54545	65.632246158732	7
9506	55416	66.432246158732	7
9506	55514	66.544709150047	7
9506	55708	66.732596543651	2
9506	56921	67.640577886763	9
9506	57363	67.940577886763	3
9506	58433	68.752110724319	7
9506	58456	68.756969652515	7
9506	58757	68.961495261112	2
9506	58882	69.061642946332	2
9506	59024	69.153260208959	3
9506	59276	69.369166370806	3
9506	59669	69.767455905989	6
9506	60037	70.067556905989	3
9506	60877	70.767556905989	7
9506	61579	71.272915344562	4
9506	62191	71.774673610024	4
9506	62983	72.292440366496	6
9506	63287	72.492540366496	6
9506	63350	72.504531047382	6
9506	63510	72.675040494484	10
9506	63665	72.77655098241	1
9506	64431	73.37655098241	7
9506	64574	73.482916448532	1
9506	64724	73.602000480549	1
9506	64797	73.683360828031	1
9506	64971	73.793428534224	1
9506	65221	73.993428534224	2
9506	65479	74.199430426984	1
9506	65763	74.404033843563	1
9506	66440	74.904134843563	5
9506	66682	75.104134843563	1
9506	67849	75.93732169059	6
9506	68521	76.53732169059	5
9506	68638	76.644957320155	1
9506	69167	77.144957320155	4
9506	70112	77.846620808407	6
9506	70212	77.93295062598	4
9506	70469	78.139237016068	1
9506	70526	78.156559680344	1
9506	70589	78.205372640074	3
9506	70621	78.246617183917	9
9506	71120	78.65980913252	6
9506	71166	78.706290835417	5
9506	71193	78.749650602196	8
9506	71225	78.75445063121	0
9506	71877	79.35445063121	5
9506	72330	79.785808616152	3
9506	72452	79.885909616152	1
9506	73156	80.485909616152	5
9506	73540	80.786312217799	2
9506	73792	80.995586711091	2
9506	74757	81.795586711091	7
9506	75432	82.296883268337	5
9506	76009	82.798891346544	6
9506	76193	82.998891346544	1
9506	76437	83.20502303313	1
9506	76902	83.609097715041	3
9506	77062	83.718803773535	1
9506	77856	84.379936673386	3
9506	79296	85.679936673386	12
9506	80704	86.780037673386	12
9506	81448	87.380037673386	5
9506	81842	87.683921264056	2
9506	82346	88.184022264056	5
9506	82541	88.384022264056	1
9506	83034	88.793860952212	4
9506	84371	89.893860952212	11
9506	84733	90.202031624818	2
9506	84749	90.205906505758	0
9506	85396	90.705906505758	4
9506	85834	91.007662231017	2
9506	86128	91.207763231017	2
9506	86394	91.410068162232	1
9506	87381	92.215883295295	9
9506	87733	92.623225980495	3
9506	88196	93.027142563078	3
9506	88407	93.230662643897	1
9506	89280	93.930763643897	7
9506	90413	94.809804619457	7
9506	91081	95.419435344901	5
9506	91208	95.536009352802	5
9506	91925	96.123054882284	7
9506	91967	96.13626666545	5
9506	92027	96.204379176932	5
9506	92269	96.412602730165	2
9506	92709	96.812602730165	3
9506	93232	97.221732771324	4
9506	93252	97.239146110724	4
9506	93645	97.625799105667	3
9506	93757	97.741568078779	4
9506	93763	97.745717053067	4
9506	94519	98.349276537902	7
9506	95008	98.749276537902	3
9506	95257	98.951227717993	1
9506	95572	99.157326577249	1
9506	96164	99.56895037811	3
9506	96728	99.971748771613	3
9506	96852	100.073400617879	9
9506	97405	100.477396985065	4
9506	97768	100.777396985065	2
9506	98819	101.579853087233	8
9506	98827	101.591527924984	7
9506	99547	102.266640334854	7
9506	99963	102.666741334854	4
9506	100160	102.866741334854	1
9506	100964	103.472297384517	5
9506	101871	104.278619753035	8
9506	102195	104.576391095498	7
9506	102221	104.588422009544	2
9506	103163	105.394785930219	9
9506	103572	105.709451945388	2
9506	103872	105.920463528976	1
9506	105000	106.762193437806	6
9506	105651	107.266672501748	4
9506	106197	107.666773501748	4
9506	106549	107.966773501748	2
9506	106820	108.203441526731	1
9506	107448	108.703542526731	6
9506	108020	109.203542526731	5
9506	108584	109.704510476269	4
9506	109091	110.105772023017	3
9506	109113	110.112933711431	3
9506	109925	110.813360984215	7
9506	111518	111.917036333815	11
9506	111788	112.117036333815	1
9506	112375	112.621531338125	3
9506	112723	112.909669470005	5
9506	112984	113.109770470005	3
9506	113330	113.409770470005	2
9506	113781	113.816149226719	3
9506	114184	114.124161071776	2
9506	114303	114.229718893488	3
9506	114305	114.232328814601	3
9506	114601	114.527111898931	3
9506	114610	114.535802310281	3
9506	114977	114.836423965356	3
9506	115555	115.336423965356	5
9506	116192	115.837426003682	4
9506	116482	116.138698132003	3
9506	117404	116.938698132003	8
9506	118617	118.147277021237	13
9506	119064	118.452753016826	2
9506	119079	118.463034696779	2
9506	119404	118.668217644923	2
9506	120785	119.671353751471	2
9506	121047	119.873692456121	2
9506	121224	119.974111228305	1
9506	122487	121.074111228305	11
9506	122745	121.281675036655	1
9506	122931	121.476881307078	1
9506	122976	121.501935608273	1
9506	123231	121.706067298523	2
9506	123402	121.906067298523	1
9506	123729	122.212547922146	2
9506	123965	122.418896123859	2
9506	124154	122.625373051625	2
9506	124618	123.125373051625	4
9506	125254	123.625859495678	4
9506	125294	123.684440396735	4
9506	125753	124.027245328255	5
9506	126529	124.633627690852	6
9506	126776	124.833627690852	1
9506	127710	125.639104055303	6
9506	127716	125.642048579661	7
9506	127955	125.843227063842	1
9506	127963	125.847198206658	1
9506	128259	126.047299206658	2
9506	129337	126.747299206658	8
9506	131768	128.768818379258	20
9506	132127	129.174004353802	4
9506	132637	129.674004353802	4
9506	134129	130.9472284343	6
9506	134686	131.35622729435	4
9506	135104	131.75622729435	3
9506	135938	132.559365874739	7
9506	136550	133.16275353845	5
9506	136802	133.474635493787	2
9506	136900	133.571987547226	2
9507	136	20.100001	0.875
9507	261	20.300001	0.875
9507	482	20.605923398313	0.75
9507	702	20.911385063516	0.75
9507	1512	21.618011740984	0.25
9507	1817	21.819560552683	0.75
9507	2575	22.411951498525	0.75
9507	3230	23.011951498525	0.375
9507	4353	24.023965546101	-0.25
9507	4673	24.333846016385	0.75
9507	5134	24.739892128871	0.625
9507	5802	25.249118204781	0.375
9507	6383	25.749118204781	0.5
9507	6653	25.953398408997	0.875
9507	6703	25.960715837087	0.875
9507	7421	26.560560526428	0.375
9507	8383	27.261638764125	0.125
9507	8877	27.761739764125	0.375
9507	9274	28.170790379286	0.5
9507	9307	28.249898843745	0.75
9507	9681	28.653436478411	0.5
9507	10342	29.353436478411	0.25
9507	10911	29.86149165586	0.5
9507	11538	30.469334776293	0.375
9507	11901	30.776744511086	0.75
9507	12315	31.126552626065	0.75
9507	12363	31.183859712479	0.625
9507	13050	31.793100475452	0.25
9507	13145	31.889969173112	0.375
9507	13234	31.933082196796	0.125
9507	13258	31.93756284264	1
9507	15038	33.33756284264	-1.125
9507	15393	33.647331711664	0.75
9507	15452	33.690268153619	0.75
9507	16327	34.448363865264	0.125
9507	17007	35.048464865264	0.25
9507	17277	35.248464865264	0.875
9507	17607	35.551688720836	0.75
9507	17847	35.751789720836	0.75
9507	18791	36.551789720836	0
9507	19231	36.95957541963	0.5
9507	20087	37.65957541963	0.125
9507	20194	37.750691914295	0.625
9507	20411	37.961480654474	0.75
9507	20815	38.253377108703	0.5
9507	20839	38.269794874278	0.625
9507	21101	38.470853266904	0.625
9507	21405	38.680587858913	0.875
9507	21677	38.895714928685	0.875
9507	21863	39.074833860819	0.875
9507	22146	39.2834483259	1
9507	22596	39.5834483259	0.75
9507	23249	40.091844407354	0.5
9507	23797	40.497350812094	0.125
9507	24398	41.096569671192	-0.125
9507	24404	41.097450812094	-0.125
9507	24443	41.112999491587	0.375
9507	25610	42.118258890616	-0.25
9507	26603	42.918258890616	0
9507	27363	43.626660834971	0.25
9507	27811	44.018360736126	0.625
9507	27956	44.118461736126	0.875
9507	28954	45.018461736126	0
9507	29090	45.127454738332	0.75
9507	29431	45.424076644612	0.625
9507	29439	45.429757331108	0.625
9507	29702	45.635638957014	0.875
9507	29705	45.636442344525	0.875
9507	30156	45.936543344525	0.625
9507	30510	46.236543344525	0.75
9507	30679	46.345783682186	0.875
9507	31030	46.655983756198	0.75
9507	31236	46.799128998005	0.5
9507	31272	46.86003800144	0.875
9507	31877	47.266755542154	0.5
9507	33032	48.166755542154	-0.125
9507	33842	48.773730679826	0.25
9507	34815	49.478688948951	0.125
9507	34885	49.492472854165	0.125
9507	35071	49.641011841912	0.5
9507	35537	50.045062479436	0.5
9507	36100	50.545062479436	0.5
9507	37487	51.645163479436	-0.5
9507	37917	52.045163479436	0.625
9507	38396	52.449172223592	0.625
9507	38653	52.689043902433	0.625
9507	38883	52.851396863397	0.5
9507	39339	53.195156807077	0.375
9507	39389	53.233469370608	0.5
9507	40419	54.042655913144	-0.125
9507	40729	54.342655913144	0.75
9507	42065	55.448500423721	-0.625
9507	42499	55.751464713787	0.75
9507	42817	55.953039599869	0.75
9507	43355	56.359767479465	0.5
9507	43582	56.56638603028	0.875
9507	44213	57.179257657731	0.625
9507	45685	58.524945843773	0.125
9507	45738	58.579257657731	-0.75
9507	45958	58.785843768085	0.875
9507	46479	59.192654743681	0.5
9507	46778	59.426464721007	-0.125
9507	46845	59.488419209029	0.25
9507	47733	60.294768124032	-0.375
9507	48496	60.894768124032	0.125
9507	49893	61.942276443206	-0.25
9507	49904	61.963488731618	-0.25
9507	50537	62.445220925107	0.5
9507	50696	62.59338428725	0.75
9507	50887	62.766665588587	0
9507	50927	62.794063590948	0.875
9507	51506	63.200231110933	0.5
9507	52693	64.100231110933	0
9507	53301	64.53210096516	0.75
9507	53570	64.737458741276	0.75
9507	53641	64.804839303858	0.125
9507	53794	64.932145158732	0.875
9507	54545	65.632246158732	0.125
9507	55416	66.432246158732	0.125
9507	55514	66.544709150047	0.22222220897675
9507	55708	66.732596543651	0.75
9507	56921	67.640577886763	-0.125
9507	57363	67.940577886763	0.625
9507	58433	68.752110724319	0.125
9507	58456	68.756969652515	0.125
9507	58757	68.961495261112	0.75
9507	58882	69.061642946332	0.75
9507	59024	69.153260208959	0.625
9507	59276	69.369166370806	0.625
9507	59669	69.767455905989	0.25
9507	60037	70.067556905989	0.625
9507	60877	70.767556905989	0.125
9507	61579	71.272915344562	0.5
9507	62191	71.774673610024	0.5
9507	62983	72.292440366496	0.25
9507	63287	72.492540366496	0.25
9507	63350	72.504531047382	0.25
9507	63510	72.675040494484	-0.25
9507	63665	72.77655098241	0.875
9507	64431	73.37655098241	0.125
9507	64574	73.482916448532	0.875
9507	64724	73.602000480549	0.875
9507	64797	73.683360828031	0.875
9507	64971	73.793428534224	0.875
9507	65221	73.993428534224	0.75
9507	65479	74.199430426984	0.875
9507	65763	74.404033843563	0.875
9507	66440	74.904134843563	0.375
9507	66682	75.104134843563	0.875
9507	67849	75.93732169059	0.25
9507	68521	76.53732169059	0.375
9507	68638	76.644957320155	0.875
9507	69167	77.144957320155	0.5
9507	70112	77.846620808407	0.25
9507	70212	77.93295062598	0.5
9507	70469	78.139237016068	0.875
9507	70526	78.156559680344	0.875
9507	70589	78.205372640074	0.625
9507	70621	78.246617183917	-0.125
9507	71120	78.65980913252	0.25
9507	71166	78.706290835417	0.375
9507	71193	78.749650602196	0
9507	71225	78.75445063121	1
9507	71877	79.35445063121	0.375
9507	72330	79.785808616152	0.625
9507	72452	79.885909616152	0.875
9507	73156	80.485909616152	0.375
9507	73540	80.786312217799	0.75
9507	73792	80.995586711091	0.77777777612209
9507	74757	81.795586711091	0.125
9507	75432	82.296883268337	0.375
9507	76009	82.798891346544	0.25
9507	76193	82.998891346544	0.875
9507	76437	83.20502303313	0.875
9507	76902	83.609097715041	0.625
9507	77062	83.718803773535	0.875
9507	77856	84.379936673386	0.625
9507	79296	85.679936673386	-0.5
9507	80704	86.780037673386	-0.5
9507	81448	87.380037673386	0.375
9507	81842	87.683921264056	0.75
9507	82346	88.184022264056	0.375
9507	82541	88.384022264056	0.875
9507	83034	88.793860952212	0.5
9507	84371	89.893860952212	-0.375
9507	84733	90.202031624818	0.75
9507	84749	90.205906505758	1
9507	85396	90.705906505758	0.5
9507	85834	91.007662231017	0.75
9507	86128	91.207763231017	0.75
9507	86394	91.410068162232	0.875
9507	87381	92.215883295295	-0.125
9507	87733	92.623225980495	0.625
9507	88196	93.027142563078	0.625
9507	88407	93.230662643897	0.875
9507	89280	93.930763643897	0.125
9507	90413	94.809804619457	0.125
9507	91081	95.419435344901	0.375
9507	91208	95.536009352802	0.375
9507	91925	96.123054882284	0.125
9507	91967	96.13626666545	0.375
9507	92027	96.204379176932	0.375
9507	92269	96.412602730165	0.75
9507	92709	96.812602730165	0.625
9507	93232	97.221732771324	0.5
9507	93252	97.239146110724	0.5
9507	93645	97.625799105667	0.625
9507	93757	97.741568078779	0.5
9507	93763	97.745717053067	0.5
9507	94519	98.349276537902	0.125
9507	95008	98.749276537902	0.625
9507	95257	98.951227717993	0.875
9507	95572	99.157326577249	0.875
9507	96164	99.56895037811	0.625
9507	96728	99.971748771613	0.625
9507	96852	100.073400617879	-0.125
9507	97405	100.477396985065	0.5
9507	97768	100.777396985065	0.75
9507	98819	101.579853087233	0
9507	98827	101.591527924984	0.125
9507	99547	102.266640334854	0.125
9507	99963	102.666741334854	0.5
9507	100160	102.866741334854	0.875
9507	100964	103.472297384517	0.375
9507	101871	104.278619753035	0
9507	102195	104.576391095498	0.125
9507	102221	104.588422009544	0.75
9507	103163	105.394785930219	-0.125
9507	103572	105.709451945388	0.75
9507	103872	105.920463528976	0.875
9507	105000	106.762193437806	0.25
9507	105651	107.266672501748	0.5
9507	106197	107.666773501748	0.5
9507	106549	107.966773501748	0.75
9507	106820	108.203441526731	0.875
9507	107448	108.703542526731	0.25
9507	108020	109.203542526731	0.375
9507	108584	109.704510476269	0.5
9507	109091	110.105772023017	0.625
9507	109113	110.112933711431	0.625
9507	109925	110.813360984215	0.125
9507	111518	111.917036333815	-0.375
9507	111788	112.117036333815	0.875
9507	112375	112.621531338125	0.625
9507	112723	112.909669470005	0.375
9507	112984	113.109770470005	0.625
9507	113330	113.409770470005	0.75
9507	113781	113.816149226719	0.625
9507	114184	114.124161071776	0.75
9507	114303	114.229718893488	0.625
9507	114305	114.232328814601	0.625
9507	114601	114.527111898931	0.625
9507	114610	114.535802310281	0.625
9507	114977	114.836423965356	0.625
9507	115555	115.336423965356	0.375
9507	116192	115.837426003682	0.5
9507	116482	116.138698132003	0.625
9507	117404	116.938698132003	0
9507	118617	118.147277021237	-0.625
9507	119064	118.452753016826	0.75
9507	119079	118.463034696779	0.75
9507	119404	118.668217644923	0.75
9507	120785	119.671353751471	0.75
9507	121047	119.873692456121	0.75
9507	121224	119.974111228305	0.875
9507	122487	121.074111228305	-0.375
9507	122745	121.281675036655	0.875
9507	122931	121.476881307078	0.875
9507	122976	121.501935608273	0.875
9507	123231	121.706067298523	0.75
9507	123402	121.906067298523	0.875
9507	123729	122.212547922146	0.75
9507	123965	122.418896123859	0.75
9507	124154	122.625373051625	0.75
9507	124618	123.125373051625	0.5
9507	125254	123.625859495678	0.5
9507	125294	123.684440396735	0.5
9507	125753	124.027245328255	0.375
9507	126529	124.633627690852	0.25
9507	126776	124.833627690852	0.875
9507	127710	125.639104055303	0.25
9507	127716	125.642048579661	0.125
9507	127955	125.843227063842	0.875
9507	127963	125.847198206658	0.875
9507	128259	126.047299206658	0.75
9507	129337	126.747299206658	0
9507	131768	128.768818379258	-1.5
9507	132127	129.174004353802	0.5
9507	132637	129.674004353802	0.5
9507	134129	130.9472284343	0.25
9507	134686	131.35622729435	0.5
9507	135104	131.75622729435	0.625
9507	135938	132.559365874739	0.125
9507	136550	133.16275353845	0.375
9507	136802	133.474635493787	0.75
9507	136900	133.571987547226	0.75
9508	136	20.100001	0.1
9508	261	20.300001	0.2
9508	482	20.605923398313	0.3
9508	702	20.911385063516	0.3
9508	1512	21.618011740984	0.7
9508	1817	21.819560552683	0.2
9508	2575	22.411951498525	0.2
9508	3230	23.011951498525	0.6
9508	4353	24.023965546101	1
9508	4673	24.333846016385	0.3
9508	5134	24.739892128871	0.4
9508	5802	25.249118204781	0.5
9508	6383	25.749118204781	0.5
9508	6653	25.953398408997	0.2
9508	6703	25.960715837087	0.2
9508	7421	26.560560526428	0.6
9508	8383	27.261638764125	0.7
9508	8877	27.761739764125	0.5
9508	9274	28.170790379286	0.4
9508	9307	28.249898843745	0.3
9508	9681	28.653436478411	0.4
9508	10342	29.353436478411	0.7
9508	10911	29.86149165586	0.5
9508	11538	30.469334776293	0.6
9508	11901	30.776744511086	0.3
9508	12315	31.126552626065	0.3
9508	12363	31.183859712479	0.4
9508	13050	31.793100475452	0.6
9508	13145	31.889969173112	0.6
9508	13234	31.933082196796	0.8
9508	13258	31.93756284264	0
9508	15038	33.33756284264	1.4
9508	15393	33.647331711664	0.3
9508	15452	33.690268153619	0.3
9508	16327	34.448363865264	0.8
9508	17007	35.048464865264	0.6
9508	17277	35.248464865264	0.2
9508	17607	35.551688720836	0.3
9508	17847	35.751789720836	0.2
9508	18791	36.551789720836	0.8
9508	19231	36.95957541963	0.4
9508	20087	37.65957541963	0.7
9508	20194	37.750691914295	0.4
9508	20411	37.961480654474	0.3
9508	20815	38.253377108703	0.5
9508	20839	38.269794874278	0.3
9508	21101	38.470853266904	0.2
9508	21405	38.680587858913	0.2
9508	21677	38.895714928685	0.2
9508	21863	39.074833860819	0.2
9508	22146	39.2834483259	0
9508	22596	39.5834483259	0.3
9508	23249	40.091844407354	0.5
9508	23797	40.497350812094	0.7
9508	24398	41.096569671192	1
9508	24404	41.097450812094	1
9508	24443	41.112999491587	0.6
9508	25610	42.118258890616	1
9508	26603	42.918258890616	0.8
9508	27363	43.626660834971	0.7
9508	27811	44.018360736126	0.4
9508	27956	44.118461736126	0.1
9508	28954	45.018461736126	0.9
9508	29090	45.127454738332	0.3
9508	29431	45.424076644612	0.4
9508	29439	45.429757331108	0.3
9508	29702	45.635638957014	0.2
9508	29705	45.636442344525	0.2
9508	30156	45.936543344525	0.3
9508	30510	46.236543344525	0.3
9508	30679	46.345783682186	0.1
9508	31030	46.655983756198	0.3
9508	31236	46.799128998005	0.5
9508	31272	46.86003800144	0.2
9508	31877	47.266755542154	0.4
9508	33032	48.166755542154	0.9
9508	33842	48.773730679826	0.6
9508	34815	49.478688948951	0.7
9508	34885	49.492472854165	0.7
9508	35071	49.641011841912	0.5
9508	35537	50.045062479436	0.4
9508	36100	50.545062479436	0.5
9508	37487	51.645163479436	1.1
9508	37917	52.045163479436	0.4
9508	38396	52.449172223592	0.4
9508	38653	52.689043902433	0.4
9508	38883	52.851396863397	0.4
9508	39339	53.195156807077	0.5
9508	39389	53.233469370608	0.5
9508	40419	54.042655913144	0.8
9508	40729	54.342655913144	0.3
9508	42065	55.448500423721	1.1
9508	42499	55.751464713787	0.3
9508	42817	55.953039599869	0.2
9508	43355	56.359767479465	0.4
9508	43582	56.56638603028	0.2
9508	44213	57.179257657731	0.3
9508	45685	58.524945843773	0.8
9508	45738	58.579257657731	1.4
9508	45958	58.785843768085	0.2
9508	46479	59.192654743681	0.5
9508	46778	59.426464721007	0.9
9508	46845	59.488419209029	0.7
9508	47733	60.294768124032	0.8
9508	48496	60.894768124032	0.6
9508	49893	61.942276443206	1
9508	49904	61.963488731618	1
9508	50537	62.445220925107	0.5
9508	50696	62.59338428725	0.3
9508	50887	62.766665588587	0.8
9508	50927	62.794063590948	0.2
9508	51506	63.200231110933	0.4
9508	52693	64.100231110933	0.9
9508	53301	64.53210096516	0.3
9508	53570	64.737458741276	0.2
9508	53641	64.804839303858	0.7
9508	53794	64.932145158732	0.2
9508	54545	65.632246158732	0.7
9508	55416	66.432246158732	0.8
9508	55514	66.544709150047	0.8
9508	55708	66.732596543651	0.3
9508	56921	67.640577886763	0.9
9508	57363	67.940577886763	0.3
9508	58433	68.752110724319	0.8
9508	58456	68.756969652515	0.8
9508	58757	68.961495261112	0.2
9508	58882	69.061642946332	0.3
9508	59024	69.153260208959	0.4
9508	59276	69.369166370806	0.4
9508	59669	69.767455905989	0.7
9508	60037	70.067556905989	0.3
9508	60877	70.767556905989	0.7
9508	61579	71.272915344562	0.5
9508	62191	71.774673610024	0.5
9508	62983	72.292440366496	0.5
9508	63287	72.492540366496	0.7
9508	63350	72.504531047382	0.7
9508	63510	72.675040494484	0.9
9508	63665	72.77655098241	0.1
9508	64431	73.37655098241	0.6
9508	64574	73.482916448532	0.1
9508	64724	73.602000480549	0.2
9508	64797	73.683360828031	0.2
9508	64971	73.793428534224	0.1
9508	65221	73.993428534224	0.2
9508	65479	74.199430426984	0.2
9508	65763	74.404033843563	0.2
9508	66440	74.904134843563	0.5
9508	66682	75.104134843563	0.2
9508	67849	75.93732169059	0.6
9508	68521	76.53732169059	0.6
9508	68638	76.644957320155	0.1
9508	69167	77.144957320155	0.5
9508	70112	77.846620808407	0.7
9508	70212	77.93295062598	0.5
9508	70469	78.139237016068	0.2
9508	70526	78.156559680344	0.2
9508	70589	78.205372640074	0.4
9508	70621	78.246617183917	0.9
9508	71120	78.65980913252	0.5
9508	71166	78.706290835417	0.5
9508	71193	78.749650602196	0.9
9508	71225	78.75445063121	0
9508	71877	79.35445063121	0.6
9508	72330	79.785808616152	0.4
9508	72452	79.885909616152	0.1
9508	73156	80.485909616152	0.6
9508	73540	80.786312217799	0.3
9508	73792	80.995586711091	0.2