version 2
run Stability-58-20130526-18:50:55-1898
attr configname Stability
attr datetime 20130526-18:50:55
attr experiment Stability
attr inifile omnetpp.ini
attr iterationvars $0=1e1
attr iterationvars2 "$0=1e1, $repetition=8"
attr measurement $0=1e1
attr network Network
attr processid 1898
attr repetition 8
attr replication #8
attr resultdir results
attr runnumber 58
attr seedset 58

vector 5722  Network.churner  inGoingSizeSig:vector  ETV
vector 5629  Network.dyn_peer[1]  lookupHopsSig:vector  ETV
vector 5630  Network.dyn_peer[1]  lookupStabilitySig:vector  ETV
vector 5631  Network.dyn_peer[1]  lookupTimeSig:vector  ETV
vector 5632  Network.dyn_peer[2]  lookupHopsSig:vector  ETV
vector 5633  Network.dyn_peer[2]  lookupStabilitySig:vector  ETV
vector 5634  Network.dyn_peer[2]  lookupTimeSig:vector  ETV
vector 5635  Network.dyn_peer[3]  lookupHopsSig:vector  ETV
vector 5636  Network.dyn_peer[3]  lookupStabilitySig:vector  ETV
vector 5637  Network.dyn_peer[3]  lookupTimeSig:vector  ETV
vector 5638  Network.dyn_peer[4]  lookupHopsSig:vector  ETV
vector 5639  Network.dyn_peer[4]  lookupStabilitySig:vector  ETV
vector 5640  Network.dyn_peer[4]  lookupTimeSig:vector  ETV
vector 5671  Network.dyn_peer[15]  lookupHopsSig:vector  ETV
vector 5672  Network.dyn_peer[15]  lookupStabilitySig:vector  ETV
vector 5673  Network.dyn_peer[15]  lookupTimeSig:vector  ETV
vector 5650  Network.dyn_peer[8]  lookupHopsSig:vector  ETV
vector 5651  Network.dyn_peer[8]  lookupStabilitySig:vector  ETV
vector 5652  Network.dyn_peer[8]  lookupTimeSig:vector  ETV
vector 5653  Network.dyn_peer[9]  lookupHopsSig:vector  ETV
vector 5654  Network.dyn_peer[9]  lookupStabilitySig:vector  ETV
vector 5655  Network.dyn_peer[9]  lookupTimeSig:vector  ETV
vector 5626  Network.dyn_peer[0]  lookupHopsSig:vector  ETV
vector 5627  Network.dyn_peer[0]  lookupStabilitySig:vector  ETV
vector 5628  Network.dyn_peer[0]  lookupTimeSig:vector  ETV
vector 5656  Network.dyn_peer[10]  lookupHopsSig:vector  ETV
vector 5657  Network.dyn_peer[10]  lookupStabilitySig:vector  ETV
vector 5658  Network.dyn_peer[10]  lookupTimeSig:vector  ETV
vector 5659  Network.dyn_peer[11]  lookupHopsSig:vector  ETV
vector 5660  Network.dyn_peer[11]  lookupStabilitySig:vector  ETV
vector 5661  Network.dyn_peer[11]  lookupTimeSig:vector  ETV
vector 5665  Network.dyn_peer[13]  lookupHopsSig:vector  ETV
vector 5666  Network.dyn_peer[13]  lookupStabilitySig:vector  ETV
vector 5667  Network.dyn_peer[13]  lookupTimeSig:vector  ETV
vector 5641  Network.dyn_peer[5]  lookupHopsSig:vector  ETV
vector 5642  Network.dyn_peer[5]  lookupStabilitySig:vector  ETV
vector 5643  Network.dyn_peer[5]  lookupTimeSig:vector  ETV
vector 5674  Network.dyn_peer[16]  lookupHopsSig:vector  ETV
vector 5675  Network.dyn_peer[16]  lookupStabilitySig:vector  ETV
vector 5676  Network.dyn_peer[16]  lookupTimeSig:vector  ETV
vector 5647  Network.dyn_peer[7]  lookupHopsSig:vector  ETV
vector 5648  Network.dyn_peer[7]  lookupStabilitySig:vector  ETV
vector 5649  Network.dyn_peer[7]  lookupTimeSig:vector  ETV
vector 5695  Network.dyn_peer[23]  lookupHopsSig:vector  ETV
vector 5696  Network.dyn_peer[23]  lookupStabilitySig:vector  ETV
vector 5697  Network.dyn_peer[23]  lookupTimeSig:vector  ETV
vector 5644  Network.dyn_peer[6]  lookupHopsSig:vector  ETV
vector 5645  Network.dyn_peer[6]  lookupStabilitySig:vector  ETV
vector 5646  Network.dyn_peer[6]  lookupTimeSig:vector  ETV
vector 5677  Network.dyn_peer[17]  lookupHopsSig:vector  ETV
vector 5678  Network.dyn_peer[17]  lookupStabilitySig:vector  ETV
vector 5679  Network.dyn_peer[17]  lookupTimeSig:vector  ETV
vector 5680  Network.dyn_peer[18]  lookupHopsSig:vector  ETV
vector 5681  Network.dyn_peer[18]  lookupStabilitySig:vector  ETV
vector 5682  Network.dyn_peer[18]  lookupTimeSig:vector  ETV
vector 5683  Network.dyn_peer[19]  lookupHopsSig:vector  ETV
vector 5684  Network.dyn_peer[19]  lookupStabilitySig:vector  ETV
vector 5685  Network.dyn_peer[19]  lookupTimeSig:vector  ETV
vector 5686  Network.dyn_peer[20]  lookupHopsSig:vector  ETV
vector 5687  Network.dyn_peer[20]  lookupStabilitySig:vector  ETV
vector 5688  Network.dyn_peer[20]  lookupTimeSig:vector  ETV
vector 5662  Network.dyn_peer[12]  lookupHopsSig:vector  ETV
vector 5663  Network.dyn_peer[12]  lookupStabilitySig:vector  ETV
vector 5664  Network.dyn_peer[12]  lookupTimeSig:vector  ETV
vector 5692  Network.dyn_peer[22]  lookupHopsSig:vector  ETV
vector 5693  Network.dyn_peer[22]  lookupStabilitySig:vector  ETV
vector 5694  Network.dyn_peer[22]  lookupTimeSig:vector  ETV
vector 5668  Network.dyn_peer[14]  lookupHopsSig:vector  ETV
vector 5669  Network.dyn_peer[14]  lookupStabilitySig:vector  ETV
vector 5670  Network.dyn_peer[14]  lookupTimeSig:vector  ETV
vector 5701  Network.dyn_peer[25]  lookupHopsSig:vector  ETV
vector 5702  Network.dyn_peer[25]  lookupStabilitySig:vector  ETV
vector 5703  Network.dyn_peer[25]  lookupTimeSig:vector  ETV
vector 5704  Network.dyn_peer[26]  lookupHopsSig:vector  ETV
vector 5705  Network.dyn_peer[26]  lookupStabilitySig:vector  ETV
vector 5706  Network.dyn_peer[26]  lookupTimeSig:vector  ETV
vector 5710  Network.dyn_peer[28]  lookupHopsSig:vector  ETV
vector 5711  Network.dyn_peer[28]  lookupStabilitySig:vector  ETV
vector 5712  Network.dyn_peer[28]  lookupTimeSig:vector  ETV
vector 5716  Network.dyn_peer[30]  lookupHopsSig:vector  ETV
vector 5717  Network.dyn_peer[30]  lookupStabilitySig:vector  ETV
vector 5718  Network.dyn_peer[30]  lookupTimeSig:vector  ETV
vector 5698  Network.dyn_peer[24]  lookupHopsSig:vector  ETV
vector 5699  Network.dyn_peer[24]  lookupStabilitySig:vector  ETV
vector 5700  Network.dyn_peer[24]  lookupTimeSig:vector  ETV
vector 5707  Network.dyn_peer[27]  lookupHopsSig:vector  ETV
vector 5708  Network.dyn_peer[27]  lookupStabilitySig:vector  ETV
vector 5709  Network.dyn_peer[27]  lookupTimeSig:vector  ETV
vector 5689  Network.dyn_peer[21]  lookupHopsSig:vector  ETV
vector 5690  Network.dyn_peer[21]  lookupStabilitySig:vector  ETV
vector 5691  Network.dyn_peer[21]  lookupTimeSig:vector  ETV
vector 5719  Network.dyn_peer[31]  lookupHopsSig:vector  ETV
vector 5720  Network.dyn_peer[31]  lookupStabilitySig:vector  ETV
vector 5721  Network.dyn_peer[31]  lookupTimeSig:vector  ETV
vector 5713  Network.dyn_peer[29]  lookupHopsSig:vector  ETV
vector 5714  Network.dyn_peer[29]  lookupStabilitySig:vector  ETV
vector 5715  Network.dyn_peer[29]  lookupTimeSig:vector  ETV
5626	129	20.21	2
5626	388	20.61	3
5626	492	20.812674374117	1
5626	716	21.115909923766	2
5626	840	21.212450429176	3
5626	1202	21.524692466103	3
5626	2138	22.224692466103	6
5626	2834	22.827474732039	1
5626	3160	23.125694238592	8
5626	4553	24.239940635486	13
5626	5242	24.939940635486	7
5626	5379	25.052698021734	1
5626	5676	25.352698021734	2
5626	6409	25.998082331585	8
5626	6931	26.408182331585	4
5626	7413	26.808182331585	3
5626	7933	27.206711324317	2
5626	8177	27.41530297956	8
5626	8736	27.89663699329	10
5626	9312	28.409900861779	5
5626	10981	29.609900861779	12
5626	11237	29.818543178714	1
5626	11400	29.986578336844	1
5626	11699	30.299276864909	3
5626	12041	30.599276864909	2
5626	12918	31.407339330856	7
5626	13168	31.609927845213	1
5626	13398	31.772194575446	3
5626	14038	32.231951254483	5
5626	14134	32.28610846174	5
5626	14296	32.437842225118	1
5626	14431	32.539686616503	0
5626	14494	32.595046086786	2
5626	14822	32.906835222041	3
5626	15272	33.306835222041	3
5626	16181	34.11010746694	7
5626	16638	34.525697711352	4
5626	17015	34.838734109739	10
5626	17097	34.889359013259	5
5626	17256	35.0119945265	1
5626	17457	35.2119945265	1
5626	17692	35.420898500759	1
5626	17954	35.625942482239	1
5626	18517	36.034860464002	3
5626	18620	36.111202805382	3
5626	19010	36.417451174633	2
5626	19578	36.836430216695	5
5626	20449	37.536430216695	7
5626	20955	37.946985524664	4
5626	22004	38.847926916798	8
5626	22051	38.897328708693	8
5626	22379	39.155667771849	2
5626	23015	39.700796271881	7
5626	23152	39.773248355623	5
5626	23185	39.820136286622	8
5626	23964	40.53706699132	8
5626	24124	40.73706699132	1
5626	24651	41.167467589007	2
5626	25743	41.974762441738	8
5626	25997	42.182869484658	1
5626	26158	42.29248477441	1
5626	26845	42.985066591264	7
5626	26855	42.993209234242	8
5626	27150	43.21329268954	3
5626	27510	43.51329268954	2
5626	28121	44.034009989055	4
5626	28509	44.343565824883	2
5626	28567	44.396164934354	2
5626	28987	44.69914844353	2
5626	29062	44.746303493649	3
5626	29392	45.005808948041	2
5626	29456	45.044169177968	2
5626	29466	45.053530240976	2
5626	29684	45.269301989914	2
5626	30185	45.669301989914	5
5626	30542	45.972769342879	2
5626	30680	46.095219260593	2
5626	31509	46.809832864256	7
5626	31967	47.209832864256	3
5626	32640	47.812370021155	5
5626	32654	47.817592100416	5
5626	33063	48.126254576601	2
5626	33075	48.129356920451	2
5626	34015	48.849435695497	8
5626	34174	49.049435695497	1
5626	35059	49.786060844851	3
5626	35831	50.386060844851	6
5626	36199	50.592246477898	1
5626	36203	50.595360787138	1
5626	36370	50.717148308883	2
5626	36840	51.022683931436	2
5626	37220	51.300368171396	7
5626	37226	51.303539257694	7
5626	37429	51.427526965165	4
5626	37535	51.503914603494	2
5626	37545	51.511069507419	2
5626	38090	51.922973447789	4
5626	38219	52.022973447789	1
5626	39114	52.718920133275	6
5626	39369	52.929020133275	2
5626	39743	53.229020133275	3
5626	40130	53.562986762933	3
5626	40322	53.733804336334	5
5626	40544	53.935402489818	1
5626	40731	54.045502489818	1
5626	43191	55.924211425639	13
5626	44367	56.724211425639	7
5626	44940	57.177932381759	2
5626	45089	57.288032381759	1
5626	45323	57.488032381759	2
5626	45915	57.901110692383	5
5626	46151	58.101110692383	1
5626	46504	58.405329404913	2
5626	47275	59.013824788159	5
5626	47492	59.218122303212	1
5626	48556	60.137692520272	10
5626	49415	60.937692520272	7
5626	50661	61.810806789005	7
5626	51028	62.047002535516	11
5626	51747	62.564677102444	5
5626	52664	63.364677102444	8
5626	53151	63.771693788957	3
5626	53636	64.189211019166	4
5626	53915	64.440844298589	7
5626	53952	64.45796400566	0
5626	54751	65.088073699649	5
5626	55598	65.698173699649	6
5626	55862	65.898173699649	2
5626	56601	66.599328556002	6
5626	56958	66.905888554318	2
5626	57329	67.210252299148	2
5626	57407	67.296093128367	2
5626	58171	67.907920211208	6
5626	58546	68.207920211208	2
5626	59415	68.908557393778	6
5626	59603	69.119736105631	7
5626	59789	69.321529633895	1
5626	60022	69.515142725081	5
5626	60163	69.638394778249	2
5626	60192	69.655598614315	0
5626	61765	70.835867786695	9
5626	62396	71.435867786695	5
5626	63745	72.555475824537	10
5626	64228	72.866501487934	2
5626	64709	73.276601487934	4
5626	65390	73.876601487934	5
5626	66399	74.778248213618	9
5626	66929	75.183555642915	3
5626	67714	75.883555316312	3
5626	68111	76.183996771293	2
5626	68120	76.186740981122	9
5626	68867	76.797369677732	6
5626	69090	76.997369677732	1
5626	69460	77.303653717944	3
5626	69797	77.606307419065	2
5626	70469	78.233146245532	3
5626	70906	78.620443981549	11
5626	70943	78.635609529669	3
5626	71015	78.722851662312	13
5626	71235	78.937293615808	2
5626	71927	79.437293615808	4
5626	72330	79.747561097694	3
5626	72500	79.911207454668	3
5626	73409	80.664008569423	2
5626	73757	80.964008569423	3
5626	74173	81.266896016152	3
5626	74680	81.676111625718	3
5626	74726	81.711314388137	8
5626	75062	82.013049373524	2
5626	75292	82.229370616443	2
5626	75595	82.529370616443	2
5626	76136	82.930976292774	3
5626	76435	83.190825497389	4
5626	76523	83.233989106499	0
5626	76995	83.611153032527	1
5626	77992	84.224917567557	6
5626	78909	84.924917567557	6
5626	79175	85.126245719039	1
5626	79367	85.297640528023	1
5626	79481	85.408096376329	1
5626	79815	85.790501649162	1
5626	81312	87.000601649162	12
5626	82762	88.300601649162	13
5626	83017	88.509713105837	1
5626	83347	88.777152524191	2
5626	83851	89.260653026919	2
5626	83998	89.414437024859	8
5626	84252	89.621436437801	1
5626	84392	89.767100541002	5
5626	84673	89.982234897295	1
5626	84676	89.985132778911	12
5626	84957	90.196616515852	2
5626	85864	90.896616515852	6
5626	86371	91.29955316635	3
5626	87200	92.102255808007	7
5626	87433	92.313355415938	1
5626	88160	93.021331938032	6
5626	88393	93.235219580057	2
5626	88676	93.535219580057	2
5626	89291	94.14117315647	7
5626	89375	94.223715365652	6
5626	89715	94.451065725849	2
5626	89846	94.545995457504	2
5626	89913	94.630965189784	3
5626	90268	94.86023607229	3
5626	90511	95.040533269743	2
5626	90555	95.062285299411	1
5626	90612	95.132061593118	1
5626	90942	95.344575253361	2
5626	91639	95.944575253361	5
5626	92007	96.253367949003	2
5626	92508	96.662285363837	3
5626	92980	97.070563471843	3
5626	93245	97.283706326067	2
5626	93589	97.58915459042	4
5626	94352	98.295026129069	6
5626	94603	98.511910357241	2
5626	95413	99.111910357241	5
5626	95462	99.123954447953	0
5626	96229	99.857560635008	4
5626	97038	100.457560635008	5
5626	97263	100.666486217062	1
5626	97858	101.17394204646	4
5626	98604	101.735142888468	7
5626	98841	101.943855793654	1
5626	98976	102.074815296981	9
5626	99275	102.351382465361	3
5626	99667	102.670092616095	3
5626	100783	103.470092616095	7
5626	101261	103.780192616095	3
5626	101679	104.180192616095	3
5626	102025	104.48307841747	2
5626	102270	104.684069138478	2
5626	102466	104.826688180426	3
5626	102809	105.093936176357	3
5626	103527	105.604036176357	6
5626	104572	106.504036176357	8
5626	105018	106.909632959839	3
5626	105635	107.415686031864	4
5626	105782	107.52492285846	8
5626	106373	108.133261499444	5
5626	107113	108.817983513469	14
5626	107707	109.320046898509	4
5626	107864	109.439184382746	1
5626	108304	109.739184382746	3
5626	109392	110.65224690388	7
5626	109969	111.15224690388	6
5626	110566	111.658006177505	4
5626	110900	111.958807377791	2
5626	111835	112.707215986213	4
5626	112169	112.962983204975	9
5626	112552	113.307770707836	6
5626	112560	113.316012923732	6
5626	112888	113.630291168014	3
5626	113203	113.930291168014	2
5626	113464	114.169568753602	1
5626	113695	114.332787344159	4
5626	114515	115.042887344159	8
5626	114777	115.242887344159	1
5626	115039	115.45255414808	1
5626	115537	115.862152380075	3
5626	115789	116.072252380075	3
5626	116239	116.472252380075	3
5626	116452	116.679146191849	1
5626	116791	116.896784257049	2
5626	117575	117.496784257049	5
5626	118025	117.904720886585	3
5626	118439	118.286289215586	3
5626	118477	118.314357689239	3
5626	118692	118.51685062935	1
5626	119023	118.828699629345	3
5626	120016	119.628699629345	7
5626	120678	120.130728138392	4
5626	121444	120.700410124134	4
5626	122476	121.500410124134	7
5626	123120	122.010510124134	5
5626	124182	122.810510124134	7
5626	124446	123.012491188452	1
5626	124859	123.322591188452	3
5626	125769	124.022591188452	6
5626	126083	124.32408531625	2
5626	126920	125.030724003319	8
5626	127132	125.235230624498	1
5626	127240	125.348723003514	7
5626	127769	125.860183661767	7
5626	128343	126.360183661767	4
5626	128911	126.960632767913	5
5626	129328	127.375128658253	3
5626	129877	127.877501547468	4
5626	131536	129.343497357683	2
5626	131805	129.549971457299	3
5626	131979	129.666332324973	1
5626	132663	130.270193405364	6
5626	132870	130.48928105613	1
5626	134364	131.899750539031	14
5626	135169	132.699750539031	7
5627	129	20.21	0.75
5627	388	20.61	0.625
5627	492	20.812674374117	0.875
5627	716	21.115909923766	0.75
5627	840	21.212450429176	0.625
5627	1202	21.524692466103	0.625
5627	2138	22.224692466103	0.25
5627	2834	22.827474732039	0.875
5627	3160	23.125694238592	0
5627	4553	24.239940635486	-0.625
5627	5242	24.939940635486	0.125
5627	5379	25.052698021734	0.875
5627	5676	25.352698021734	0.75
5627	6409	25.998082331585	0
5627	6931	26.408182331585	0.5
5627	7413	26.808182331585	0.625
5627	7933	27.206711324317	0.75
5627	8177	27.41530297956	0
5627	8736	27.89663699329	-0.25
5627	9312	28.409900861779	0.375
5627	10981	29.609900861779	-0.5
5627	11237	29.818543178714	0.875
5627	11400	29.986578336844	0.875
5627	11699	30.299276864909	0.625
5627	12041	30.599276864909	0.75
5627	12918	31.407339330856	0.125
5627	13168	31.609927845213	0.875
5627	13398	31.772194575446	0.625
5627	14038	32.231951254483	0.375
5627	14134	32.28610846174	0.375
5627	14296	32.437842225118	0.875
5627	14431	32.539686616503	1
5627	14494	32.595046086786	0.75
5627	14822	32.906835222041	0.625
5627	15272	33.306835222041	0.625
5627	16181	34.11010746694	0.125
5627	16638	34.525697711352	0.5
5627	17015	34.838734109739	-0.25
5627	17097	34.889359013259	0.375
5627	17256	35.0119945265	0.875
5627	17457	35.2119945265	0.875
5627	17692	35.420898500759	0.875
5627	17954	35.625942482239	0.875
5627	18517	36.034860464002	0.625
5627	18620	36.111202805382	0.625
5627	19010	36.417451174633	0.75
5627	19578	36.836430216695	0.375
5627	20449	37.536430216695	0.125
5627	20955	37.946985524664	0.5
5627	22004	38.847926916798	0
5627	22051	38.897328708693	0
5627	22379	39.155667771849	0.75
5627	23015	39.700796271881	0.125
5627	23152	39.773248355623	0.375
5627	23185	39.820136286622	0
5627	23964	40.53706699132	0
5627	24124	40.73706699132	0.875
5627	24651	41.167467589007	0.75
5627	25743	41.974762441738	0
5627	25997	42.182869484658	0.875
5627	26158	42.29248477441	0.875
5627	26845	42.985066591264	0.125
5627	26855	42.993209234242	0
5627	27150	43.21329268954	0.625
5627	27510	43.51329268954	0.75
5627	28121	44.034009989055	0.5
5627	28509	44.343565824883	0.75
5627	28567	44.396164934354	0.75
5627	28987	44.69914844353	0.75
5627	29062	44.746303493649	0.625
5627	29392	45.005808948041	0.75
5627	29456	45.044169177968	0.75
5627	29466	45.053530240976	0.75
5627	29684	45.269301989914	0.75
5627	30185	45.669301989914	0.375
5627	30542	45.972769342879	0.75
5627	30680	46.095219260593	0.75
5627	31509	46.809832864256	0.125
5627	31967	47.209832864256	0.625
5627	32640	47.812370021155	0.375
5627	32654	47.817592100416	0.375
5627	33063	48.126254576601	0.75
5627	33075	48.129356920451	0.77777777612209
5627	34015	48.849435695497	0
5627	34174	49.049435695497	0.875
5627	35059	49.786060844851	0.625
5627	35831	50.386060844851	0.25
5627	36199	50.592246477898	0.875
5627	36203	50.595360787138	0.875
5627	36370	50.717148308883	0.75
5627	36840	51.022683931436	0.75
5627	37220	51.300368171396	0.125
5627	37226	51.303539257694	0.125
5627	37429	51.427526965165	0.5
5627	37535	51.503914603494	0.75
5627	37545	51.511069507419	0.75
5627	38090	51.922973447789	0.5
5627	38219	52.022973447789	0.875
5627	39114	52.718920133275	0.25
5627	39369	52.929020133275	0.75
5627	39743	53.229020133275	0.625
5627	40130	53.562986762933	0.625
5627	40322	53.733804336334	0.375
5627	40544	53.935402489818	0.875
5627	40731	54.045502489818	0.875
5627	43191	55.924211425639	-0.625
5627	44367	56.724211425639	0.125
5627	44940	57.177932381759	0.75
5627	45089	57.288032381759	0.875
5627	45323	57.488032381759	0.75
5627	45915	57.901110692383	0.375
5627	46151	58.101110692383	0.875
5627	46504	58.405329404913	0.75
5627	47275	59.013824788159	0.375
5627	47492	59.218122303212	0.875
5627	48556	60.137692520272	-0.25
5627	49415	60.937692520272	0.125
5627	50661	61.810806789005	0.125
5627	51028	62.047002535516	-0.375
5627	51747	62.564677102444	0.375
5627	52664	63.364677102444	0
5627	53151	63.771693788957	0.625
5627	53636	64.189211019166	0.5
5627	53915	64.440844298589	0.125
5627	53952	64.45796400566	1
5627	54751	65.088073699649	0.375
5627	55598	65.698173699649	0.25
5627	55862	65.898173699649	0.75
5627	56601	66.599328556002	0.25
5627	56958	66.905888554318	0.75
5627	57329	67.210252299148	0.75
5627	57407	67.296093128367	0.75
5627	58171	67.907920211208	0.25
5627	58546	68.207920211208	0.75
5627	59415	68.908557393778	0.25
5627	59603	69.119736105631	0.125
5627	59789	69.321529633895	0.875
5627	60022	69.515142725081	0.375
5627	60163	69.638394778249	0.75
5627	60192	69.655598614315	1
5627	61765	70.835867786695	-0.125
5627	62396	71.435867786695	0.375
5627	63745	72.555475824537	-0.25
5627	64228	72.866501487934	0.75
5627	64709	73.276601487934	0.5
5627	65390	73.876601487934	0.375
5627	66399	74.778248213618	-0.125
5627	66929	75.183555642915	0.625
5627	67714	75.883555316312	0.625
5627	68111	76.183996771293	0.75
5627	68120	76.186740981122	-0.125
5627	68867	76.797369677732	0.25
5627	69090	76.997369677732	0.875
5627	69460	77.303653717944	0.625
5627	69797	77.606307419065	0.75
5627	70469	78.233146245532	0.625
5627	70906	78.620443981549	-0.375
5627	70943	78.635609529669	0.625
5627	71015	78.722851662312	-0.625
5627	71235	78.937293615808	0.75
5627	71927	79.437293615808	0.5
5627	72330	79.747561097694	0.625
5627	72500	79.911207454668	0.625
5627	73409	80.664008569423	0.75
5627	73757	80.964008569423	0.625
5627	74173	81.266896016152	0.625
5627	74680	81.676111625718	0.625
5627	74726	81.711314388137	0
5627	75062	82.013049373524	0.75
5627	75292	82.229370616443	0.75
5627	75595	82.529370616443	0.75
5627	76136	82.930976292774	0.625
5627	76435	83.190825497389	0.5
5627	76523	83.233989106499	1
5627	76995	83.611153032527	0.875
5627	77992	84.224917567557	0.25
5627	78909	84.924917567557	0.25
5627	79175	85.126245719039	0.875
5627	79367	85.297640528023	0.875
5627	79481	85.408096376329	0.875
5627	79815	85.790501649162	0.875
5627	81312	87.000601649162	-0.5
5627	82762	88.300601649162	-0.625
5627	83017	88.509713105837	0.875
5627	83347	88.777152524191	0.75
5627	83851	89.260653026919	0.75
5627	83998	89.414437024859	0
5627	84252	89.621436437801	0.875
5627	84392	89.767100541002	0.375
5627	84673	89.982234897295	0.875
5627	84676	89.985132778911	-0.5
5627	84957	90.196616515852	0.75
5627	85864	90.896616515852	0.25
5627	86371	91.29955316635	0.625
5627	87200	92.102255808007	0.125
5627	87433	92.313355415938	0.875
5627	88160	93.021331938032	0.25
5627	88393	93.235219580057	0.75
5627	88676	93.535219580057	0.75
5627	89291	94.14117315647	0.125
5627	89375	94.223715365652	0.33333331346512
5627	89715	94.451065725849	0.75
5627	89846	94.545995457504	0.75
5627	89913	94.630965189784	0.625
5627	90268	94.86023607229	0.625
5627	90511	95.040533269743	0.75
5627	90555	95.062285299411	0.875
5627	90612	95.132061593118	0.875
5627	90942	95.344575253361	0.75
5627	91639	95.944575253361	0.375
5627	92007	96.253367949003	0.75
5627	92508	96.662285363837	0.625
5627	92980	97.070563471843	0.625
5627	93245	97.283706326067	0.75
5627	93589	97.58915459042	0.5
5627	94352	98.295026129069	0.25
5627	94603	98.511910357241	0.75
5627	95413	99.111910357241	0.375
5627	95462	99.123954447953	1
5627	96229	99.857560635008	0.5
5627	97038	100.457560635008	0.375
5627	97263	100.666486217062	0.875
5627	97858	101.17394204646	0.5
5627	98604	101.735142888468	0.125
5627	98841	101.943855793654	0.875
5627	98976	102.074815296981	-0.125
5627	99275	102.351382465361	0.625
5627	99667	102.670092616095	0.625
5627	100783	103.470092616095	0.125
5627	101261	103.780192616095	0.625
5627	101679	104.180192616095	0.625
5627	102025	104.48307841747	0.75
5627	102270	104.684069138478	0.75
5627	102466	104.826688180426	0.625
5627	102809	105.093936176357	0.625
5627	103527	105.604036176357	0.25
5627	104572	106.504036176357	0
5627	105018	106.909632959839	0.625
5627	105635	107.415686031864	0.5
5627	105782	107.52492285846	0
5627	106373	108.133261499444	0.375
5627	107113	108.817983513469	-0.75
5627	107707	109.320046898509	0.5
5627	107864	109.439184382746	0.875
5627	108304	109.739184382746	0.625
5627	109392	110.65224690388	0.125
5627	109969	111.15224690388	0.25
5627	110566	111.658006177505	0.5
5627	110900	111.958807377791	0.75
5627	111835	112.707215986213	0.5
5627	112169	112.962983204975	-0.125
5627	112552	113.307770707836	0.25
5627	112560	113.316012923732	0.25
5627	112888	113.630291168014	0.625
5627	113203	113.930291168014	0.75
5627	113464	114.169568753602	0.875
5627	113695	114.332787344159	0.5
5627	114515	115.042887344159	0
5627	114777	115.242887344159	0.875
5627	115039	115.45255414808	0.875
5627	115537	115.862152380075	0.625
5627	115789	116.072252380075	0.625
5627	116239	116.472252380075	0.625
5627	116452	116.679146191849	0.875
5627	116791	116.896784257049	0.75
5627	117575	117.496784257049	0.375
5627	118025	117.904720886585	0.625
5627	118439	118.286289215586	0.625
5627	118477	118.314357689239	0.625
5627	118692	118.51685062935	0.875
5627	119023	118.828699629345	0.625
5627	120016	119.628699629345	0.125
5627	120678	120.130728138392	0.5
5627	121444	120.700410124134	0.5
5627	122476	121.500410124134	0.125
5627	123120	122.010510124134	0.375
5627	124182	122.810510124134	0.125
5627	124446	123.012491188452	0.875
5627	124859	123.322591188452	0.625
5627	125769	124.022591188452	0.25
5627	126083	124.32408531625	0.75
5627	126920	125.030724003319	0
5627	127132	125.235230624498	0.875
5627	127240	125.348723003514	0.125
5627	127769	125.860183661767	0.125
5627	128343	126.360183661767	0.5
5627	128911	126.960632767913	0.375
5627	129328	127.375128658253	0.625
5627	129877	127.877501547468	0.5
5627	131536	129.343497357683	0.75
5627	131805	129.549971457299	0.625
5627	131979	129.666332324973	0.875
5627	132663	130.270193405364	0.25
5627	132870	130.48928105613	0.875
5627	134364	131.899750539031	-0.75
5627	135169	132.699750539031	0.125
5628	129	20.21	0.2
5628	388	20.61	0.4
5628	492	20.812674374117	0.2
5628	716	21.115909923766	0.3
5628	840	21.212450429176	0.4
5628	1202	21.524692466103	0.3
5628	2138	22.224692466103	0.7
5628	2834	22.827474732039	0.2
5628	3160	23.125694238592	0.9
5628	4553	24.239940635486	1.1
5628	5242	24.939940635486	0.7
5628	5379	25.052698021734	0.1
5628	5676	25.352698021734	0.3
5628	6409	25.998082331585	0.8
5628	6931	26.408182331585	0.4
5628	7413	26.808182331585	0.4
5628	7933	27.206711324317	0.3
5628	8177	27.41530297956	0.6
5628	8736	27.89663699329	1.1
5628	9312	28.409900861779	0.5
5628	10981	29.609900861779	1.2
5628	11237	29.818543178714	0.2
5628	11400	29.986578336844	0.2
5628	11699	30.299276864909	0.3
5628	12041	30.599276864909	0.3
5628	12918	31.407339330856	0.8
5628	13168	31.609927845213	0.2
5628	13398	31.772194575446	0.4
5628	14038	32.231951254483	0.6
5628	14134	32.28610846174	0.5
5628	14296	32.437842225118	0.2
5628	14431	32.539686616503	0.1
5628	14494	32.595046086786	0.3
5628	14822	32.906835222041	0.3
5628	15272	33.306835222041	0.4
5628	16181	34.11010746694	0.8
5628	16638	34.525697711352	0.4
5628	17015	34.838734109739	1
5628	17097	34.889359013259	0.6
5628	17256	35.0119945265	0.1
5628	17457	35.2119945265	0.2
5628	17692	35.420898500759	0.2
5628	17954	35.625942482239	0.2
5628	18517	36.034860464002	0.4
5628	18620	36.111202805382	0.4
5628	19010	36.417451174633	0.3
5628	19578	36.836430216695	0.4
5628	20449	37.536430216695	0.7
5628	20955	37.946985524664	0.4
5628	22004	38.847926916798	0.9
5628	22051	38.897328708693	0.9
5628	22379	39.155667771849	0.3
5628	23015	39.700796271881	0.8
5628	23152	39.773248355623	0.6
5628	23185	39.820136286622	0.8
5628	23964	40.53706699132	0.7
5628	24124	40.73706699132	0.2
5628	24651	41.167467589007	0.2
5628	25743	41.974762441738	0.8
5628	25997	42.182869484658	0.2
5628	26158	42.29248477441	0.1
5628	26845	42.985066591264	0.7
5628	26855	42.993209234242	0.7
5628	27150	43.21329268954	0.2
5628	27510	43.51329268954	0.3
5628	28121	44.034009989055	0.5
5628	28509	44.343565824883	0.3
5628	28567	44.396164934354	0.3
5628	28987	44.69914844353	0.3
5628	29062	44.746303493649	0.4
5628	29392	45.005808948041	0.3
5628	29456	45.044169177968	0.2
5628	29466	45.053530240976	0.3
5628	29684	45.269301989914	0.2
5628	30185	45.669301989914	0.4
5628	30542	45.972769342879	0.3
5628	30680	46.095219260593	0.3
5628	31509	46.809832864256	0.7
5628	31967	47.209832864256	0.4
5628	32640	47.812370021155	0.6
5628	32654	47.817592100416	0.6
5628	33063	48.126254576601	0.3
5628	33075	48.129356920451	0.3
5628	34015	48.849435695497	0.7
5628	34174	49.049435695497	0.2
5628	35059	49.786060844851	0.3
5628	35831	50.386060844851	0.6
5628	36199	50.592246477898	0.2
5628	36203	50.595360787138	0.2
5628	36370	50.717148308883	0.2
5628	36840	51.022683931436	0.3
5628	37220	51.300368171396	0.7
5628	37226	51.303539257694	0.7
5628	37429	51.427526965165	0.4
5628	37535	51.503914603494	0.2
5628	37545	51.511069507419	0.2
5628	38090	51.922973447789	0.4
5628	38219	52.022973447789	0.1
5628	39114	52.718920133275	0.6
5628	39369	52.929020133275	0.2
5628	39743	53.229020133275	0.3
5628	40130	53.562986762933	0.4
5628	40322	53.733804336334	0.5
5628	40544	53.935402489818	0.2
5628	40731	54.045502489818	0.1
5628	43191	55.924211425639	1.3
5628	44367	56.724211425639	0.8
5628	44940	57.177932381759	0.3
5628	45089	57.288032381759	0.1
5628	45323	57.488032381759	0.2
5628	45915	57.901110692383	0.4
5628	46151	58.101110692383	0.2
5628	46504	58.405329404913	0.3
5628	47275	59.013824788159	0.6
5628	47492	59.218122303212	0.2
5628	48556	60.137692520272	0.9
5628	49415	60.937692520272	0.8
5628	50661	61.810806789005	0.8
5628	51028	62.047002535516	1.1
5628	51747	62.564677102444	0.5
5628	52664	63.364677102444	0.8
5628	53151	63.771693788957	0.4
5628	53636	64.189211019166	0.4
5628	53915	64.440844298589	0.8
5628	53952	64.45796400566	0
5628	54751	65.088073699649	0.5
5628	55598	65.698173699649	0.6
5628	55862	65.898173699649	0.2
5628	56601	66.599328556002	0.7
5628	56958	66.905888554318	0.3
5628	57329	67.210252299148	0.3
5628	57407	67.296093128367	0.3
5628	58171	67.907920211208	0.6
5628	58546	68.207920211208	0.3
5628	59415	68.908557393778	0.7
5628	59603	69.119736105631	0.8
5628	59789	69.321529633895	0.2
5628	60022	69.515142725081	0.6
5628	60163	69.638394778249	0.3
5628	60192	69.655598614315	0
5628	61765	70.835867786695	0.8
5628	62396	71.435867786695	0.6
5628	63745	72.555475824537	1.1
5628	64228	72.866501487934	0.3
5628	64709	73.276601487934	0.4
5628	65390	73.876601487934	0.6
5628	66399	74.778248213618	0.9
5628	66929	75.183555642915	0.4
5628	67714	75.883555316312	0.4
5628	68111	76.183996771293	0.3
5628	68120	76.186740981122	1
5628	68867	76.797369677732	0.6
5628	69090	76.997369677732	0.2
5628	69460	77.303653717944	0.3
5628	69797	77.606307419065	0.3
5628	70469	78.233146245532	0.4
5628	70906	78.620443981549	1
5628	70943	78.635609529669	0.4
5628	71015	78.722851662312	1.3
5628	71235	78.937293615808	0.2
5628	71927	79.437293615808	0.5
5628	72330	79.747561097694	0.3
5628	72500	79.911207454668	0.4
5628	73409	80.664008569423	0.2
5628	73757	80.964008569423	0.3
5628	74173	81.266896016152	0.3
5628	74680	81.676111625718	0.4
5628	74726	81.711314388137	0.7
5628	75062	82.013049373524	0.3
5628	75292	82.229370616443	0.2
5628	75595	82.529370616443	0.3