version 2
run Stability-136-20130526-18:56:20-1898
attr configname Stability
attr datetime 20130526-18:56:20
attr experiment Stability
attr inifile omnetpp.ini
attr iterationvars $0=1e-7
attr iterationvars2 "$0=1e-7, $repetition=6"
attr measurement $0=1e-7
attr network Network
attr processid 1898
attr repetition 6
attr replication #6
attr resultdir results
attr runnumber 136
attr seedset 136

vector 13288  Network.churner  inGoingSizeSig:vector  ETV
vector 13219  Network.dyn_peer[9]  lookupHopsSig:vector  ETV
vector 13220  Network.dyn_peer[9]  lookupStabilitySig:vector  ETV
vector 13221  Network.dyn_peer[9]  lookupTimeSig:vector  ETV
vector 13231  Network.dyn_peer[13]  lookupHopsSig:vector  ETV
vector 13232  Network.dyn_peer[13]  lookupStabilitySig:vector  ETV
vector 13233  Network.dyn_peer[13]  lookupTimeSig:vector  ETV
vector 13237  Network.dyn_peer[15]  lookupHopsSig:vector  ETV
vector 13238  Network.dyn_peer[15]  lookupStabilitySig:vector  ETV
vector 13239  Network.dyn_peer[15]  lookupTimeSig:vector  ETV
vector 13192  Network.dyn_peer[0]  lookupHopsSig:vector  ETV
vector 13193  Network.dyn_peer[0]  lookupStabilitySig:vector  ETV
vector 13194  Network.dyn_peer[0]  lookupTimeSig:vector  ETV
vector 13225  Network.dyn_peer[11]  lookupHopsSig:vector  ETV
vector 13226  Network.dyn_peer[11]  lookupStabilitySig:vector  ETV
vector 13227  Network.dyn_peer[11]  lookupTimeSig:vector  ETV
vector 13240  Network.dyn_peer[16]  lookupHopsSig:vector  ETV
vector 13241  Network.dyn_peer[16]  lookupStabilitySig:vector  ETV
vector 13242  Network.dyn_peer[16]  lookupTimeSig:vector  ETV
vector 13246  Network.dyn_peer[18]  lookupHopsSig:vector  ETV
vector 13247  Network.dyn_peer[18]  lookupStabilitySig:vector  ETV
vector 13248  Network.dyn_peer[18]  lookupTimeSig:vector  ETV
vector 13249  Network.dyn_peer[19]  lookupHopsSig:vector  ETV
vector 13250  Network.dyn_peer[19]  lookupStabilitySig:vector  ETV
vector 13251  Network.dyn_peer[19]  lookupTimeSig:vector  ETV
vector 13258  Network.dyn_peer[22]  lookupHopsSig:vector  ETV
vector 13259  Network.dyn_peer[22]  lookupStabilitySig:vector  ETV
vector 13260  Network.dyn_peer[22]  lookupTimeSig:vector  ETV
vector 13273  Network.dyn_peer[27]  lookupHopsSig:vector  ETV
vector 13274  Network.dyn_peer[27]  lookupStabilitySig:vector  ETV
vector 13275  Network.dyn_peer[27]  lookupTimeSig:vector  ETV
vector 13282  Network.dyn_peer[30]  lookupHopsSig:vector  ETV
vector 13283  Network.dyn_peer[30]  lookupStabilitySig:vector  ETV
vector 13284  Network.dyn_peer[30]  lookupTimeSig:vector  ETV
vector 13198  Network.dyn_peer[2]  lookupHopsSig:vector  ETV
vector 13199  Network.dyn_peer[2]  lookupStabilitySig:vector  ETV
vector 13200  Network.dyn_peer[2]  lookupTimeSig:vector  ETV
vector 13204  Network.dyn_peer[4]  lookupHopsSig:vector  ETV
vector 13205  Network.dyn_peer[4]  lookupStabilitySig:vector  ETV
vector 13206  Network.dyn_peer[4]  lookupTimeSig:vector  ETV
vector 13207  Network.dyn_peer[5]  lookupHopsSig:vector  ETV
vector 13208  Network.dyn_peer[5]  lookupStabilitySig:vector  ETV
vector 13209  Network.dyn_peer[5]  lookupTimeSig:vector  ETV
vector 13210  Network.dyn_peer[6]  lookupHopsSig:vector  ETV
vector 13211  Network.dyn_peer[6]  lookupStabilitySig:vector  ETV
vector 13212  Network.dyn_peer[6]  lookupTimeSig:vector  ETV
vector 13213  Network.dyn_peer[7]  lookupHopsSig:vector  ETV
vector 13214  Network.dyn_peer[7]  lookupStabilitySig:vector  ETV
vector 13215  Network.dyn_peer[7]  lookupTimeSig:vector  ETV
vector 13228  Network.dyn_peer[12]  lookupHopsSig:vector  ETV
vector 13229  Network.dyn_peer[12]  lookupStabilitySig:vector  ETV
vector 13230  Network.dyn_peer[12]  lookupTimeSig:vector  ETV
vector 13243  Network.dyn_peer[17]  lookupHopsSig:vector  ETV
vector 13244  Network.dyn_peer[17]  lookupStabilitySig:vector  ETV
vector 13245  Network.dyn_peer[17]  lookupTimeSig:vector  ETV
vector 13264  Network.dyn_peer[24]  lookupHopsSig:vector  ETV
vector 13265  Network.dyn_peer[24]  lookupStabilitySig:vector  ETV
vector 13266  Network.dyn_peer[24]  lookupTimeSig:vector  ETV
vector 13267  Network.dyn_peer[25]  lookupHopsSig:vector  ETV
vector 13268  Network.dyn_peer[25]  lookupStabilitySig:vector  ETV
vector 13269  Network.dyn_peer[25]  lookupTimeSig:vector  ETV
vector 13270  Network.dyn_peer[26]  lookupHopsSig:vector  ETV
vector 13271  Network.dyn_peer[26]  lookupStabilitySig:vector  ETV
vector 13272  Network.dyn_peer[26]  lookupTimeSig:vector  ETV
vector 13279  Network.dyn_peer[29]  lookupHopsSig:vector  ETV
vector 13280  Network.dyn_peer[29]  lookupStabilitySig:vector  ETV
vector 13281  Network.dyn_peer[29]  lookupTimeSig:vector  ETV
vector 13216  Network.dyn_peer[8]  lookupHopsSig:vector  ETV
vector 13217  Network.dyn_peer[8]  lookupStabilitySig:vector  ETV
vector 13218  Network.dyn_peer[8]  lookupTimeSig:vector  ETV
vector 13255  Network.dyn_peer[21]  lookupHopsSig:vector  ETV
vector 13256  Network.dyn_peer[21]  lookupStabilitySig:vector  ETV
vector 13257  Network.dyn_peer[21]  lookupTimeSig:vector  ETV
vector 13276  Network.dyn_peer[28]  lookupHopsSig:vector  ETV
vector 13277  Network.dyn_peer[28]  lookupStabilitySig:vector  ETV
vector 13278  Network.dyn_peer[28]  lookupTimeSig:vector  ETV
vector 13222  Network.dyn_peer[10]  lookupHopsSig:vector  ETV
vector 13223  Network.dyn_peer[10]  lookupStabilitySig:vector  ETV
vector 13224  Network.dyn_peer[10]  lookupTimeSig:vector  ETV
vector 13234  Network.dyn_peer[14]  lookupHopsSig:vector  ETV
vector 13235  Network.dyn_peer[14]  lookupStabilitySig:vector  ETV
vector 13236  Network.dyn_peer[14]  lookupTimeSig:vector  ETV
vector 13252  Network.dyn_peer[20]  lookupHopsSig:vector  ETV
vector 13253  Network.dyn_peer[20]  lookupStabilitySig:vector  ETV
vector 13254  Network.dyn_peer[20]  lookupTimeSig:vector  ETV
vector 13285  Network.dyn_peer[31]  lookupHopsSig:vector  ETV
vector 13286  Network.dyn_peer[31]  lookupStabilitySig:vector  ETV
vector 13287  Network.dyn_peer[31]  lookupTimeSig:vector  ETV
vector 13195  Network.dyn_peer[1]  lookupHopsSig:vector  ETV
vector 13196  Network.dyn_peer[1]  lookupStabilitySig:vector  ETV
vector 13197  Network.dyn_peer[1]  lookupTimeSig:vector  ETV
vector 13201  Network.dyn_peer[3]  lookupHopsSig:vector  ETV
vector 13202  Network.dyn_peer[3]  lookupStabilitySig:vector  ETV
vector 13203  Network.dyn_peer[3]  lookupTimeSig:vector  ETV
vector 13261  Network.dyn_peer[23]  lookupHopsSig:vector  ETV
vector 13262  Network.dyn_peer[23]  lookupStabilitySig:vector  ETV
vector 13263  Network.dyn_peer[23]  lookupTimeSig:vector  ETV
13192	137	20.1000000001	1
13192	325	20.4000000001	2
13192	474	20.603015870111	1
13192	690	20.908118231334	3
13192	880	21.108118231334	1
13192	1540	21.71311817646	5
13192	1554	21.718310205224	5
13192	1759	21.9093749052	3
13192	2359	22.4094749053	5
13192	3538	23.410527001252	9
13192	4291	23.916722560787	4
13192	4591	24.119322984619	8
13192	4709	24.226320192789	2
13192	4985	24.428075361815	2
13192	5357	24.732867371421	2
13192	5511	24.835761963948	1
13192	5938	25.235761963948	3
13192	7071	26.232298609704	5
13192	7221	26.348784810781	11
13192	7519	26.551736978532	1
13192	7984	26.855438017472	3
13192	8553	27.355438017472	4
13192	8821	27.557155219343	1
13192	9232	27.938186751799	6
13192	9280	27.966211277922	3
13192	11123	29.566311278022	18
13192	12103	30.266311278022	6
13192	12356	30.47024894261	1
13192	12871	30.875968228398	3
13192	13189	31.145478790134	4
13192	13326	31.279308132271	3
13192	13665	31.585312624906	3
13192	14324	32.185312624906	6
13192	14768	32.491940815352	3
13192	14783	32.492040815452	0
13192	15038	32.692040815452	1
13192	15427	32.99737828838	2
13192	15833	33.397694275011	3
13192	16053	33.604984600161	1
13192	16325	33.815071234189	4
13192	16972	34.385588511438	2
13192	17385	34.685688511538	3
13192	18279	35.385688511538	6
13192	19094	36.091493676665	6
13192	19355	36.304067894862	1
13192	19537	36.43692510264	3
13192	19667	36.511717391988	2
13192	19702	36.538775579645	3
13192	19994	36.755009916961	1
13192	20304	37.038342311829	5
13192	20495	37.147758077936	1
13192	20720	37.347758077936	1
13192	21209	37.748967593655	4
13192	22211	38.526528581524	5
13192	22629	38.833091622019	2
13192	23450	39.533191622119	7
13192	24075	40.059069108465	0
13192	24598	40.459069108465	3
13192	24890	40.668297256541	1
13192	25223	40.912026011035	2
13192	26170	41.712126011135	9
13192	27637	42.812126011135	11
13192	27818	43.016942964699	1
13192	28053	43.221382171868	0
13192	28567	43.62647853732	6
13192	30609	45.327778266934	19
13192	32164	46.627778266934	14
13192	32504	46.943130378386	2
13192	32794	47.251123249792	2
13192	33438	47.753419995401	4
13192	33756	48.058007350445	2
13192	34832	48.958107350545	12
13192	35285	49.358107350545	3
13192	35701	49.774718952339	3
13192	35946	49.977440050057	2
13192	36540	50.477440050057	4
13192	36970	50.879702284092	3
13192	37212	51.133237284346	4
13192	37290	51.180938585061	2
13192	38168	51.884651808759	9
13192	38398	52.084651808759	1
13192	39060	52.586180823221	5
13192	39071	52.633139149705	5
13192	39329	52.786568107208	1
13192	39715	53.086668107308	3
13192	40412	53.686668107308	6
13192	41113	54.289682289574	3
13192	42195	55.289682289574	9
13192	43221	56.095011086575	8
13192	45052	57.596199180518	15
13192	45118	57.61511947708	15
13192	45376	57.897905703514	2
13192	46813	59.000640673892	11
13192	47055	59.200640673892	1
13192	47724	59.806596327876	7
13192	47911	60.015935046742	5
13192	48159	60.219297023694	1
13192	48368	60.424760015815	1
13192	48507	60.529030639588	0
13192	48573	60.573129525237	1
13192	48677	60.706942464092	10
13192	49195	61.114064690062	4
13192	49410	61.331884093333	6
13192	49487	61.37562822518	8
13192	49536	61.433549231743	10
13192	50275	62.03737267615	7
13192	50947	62.73737267615	6
13192	51229	62.94638424123	7
13192	52537	64.146848514357	14
13192	53325	64.746848514357	5
13192	53573	64.948307623444	1
13192	53952	65.179121667068	5
13192	53985	65.253408148337	4
13192	54214	65.461721266884	1
13192	54447	65.669479202913	2
13192	54830	65.988097689454	8
13192	54841	65.994869189806	2
13192	54868	66.072193938708	5
13192	55428	66.572349039786	5
13192	55733	66.872349039786	2
13192	56321	67.477119728119	5
13192	56697	67.877219728219	4
13192	57683	68.710509537757	2
13192	58370	69.213794879354	6
13192	58627	69.413794879354	1
13192	59052	69.823193737377	3
13192	59277	70.028532148391	1
13192	59521	70.242418715424	1
13192	59869	70.546825430524	4
13192	60327	70.946825430524	3
13192	60556	71.146925430424	2
13192	60787	71.354219850311	1
13192	60914	71.450864608588	5
13192	61254	71.751056424125	2
13192	61992	72.351609379634	6
13192	62547	72.851609379634	5
13192	63097	73.251709379734	4
13192	63790	73.776458576618	3
13192	64687	74.476458576618	6
13192	65317	74.885353490466	3
13192	65989	75.372831896408	3
13192	66056	75.389729503619	6
13192	66543	75.791675091553	3
13192	66581	75.855654936281	3
13192	66684	75.978332472908	8
13192	66729	75.992619942957	1
13192	66868	76.093668629735	1
13192	67420	76.593668629735	4
13192	67647	76.798611539079	1
13192	68033	77.09942307455	2
13192	68478	77.501329314976	4
13192	69423	78.214940160316	5
13192	69924	78.601329314976	13
13192	69985	78.620404950248	3
13192	70217	78.828455754011	1
13192	70393	78.930772246958	1
13192	70938	79.430772246958	4
13192	71351	79.733232875985	3
13192	71587	79.94094273524	1
13192	71809	80.150310741962	1
13192	72401	80.690440191329	13
13192	72619	80.857920413507	7
13192	73042	81.158538645848	3
13192	74248	82.165953985503	9
13192	75042	82.966053985603	8
13192	75564	83.466053985603	5
13192	76258	84.067814739922	6
13192	76370	84.170054017914	8
13192	76678	84.468108156708	3
13192	76916	84.675767628024	2
13192	77143	84.886535032311	1
13192	78751	86.048493985119	8
13192	79789	86.948493985119	9
13192	80448	87.557412040279	5
13192	80678	87.714069609606	5
13192	80894	87.967094341249	3
13192	81555	88.573272117564	6
13192	81776	88.773272117564	1
13192	82228	89.178131937702	3
13192	83053	89.778231937802	6
13192	83513	90.078231937802	2
13192	83877	90.37942860353	2
13192	84511	90.864728475885	4
13192	84679	90.98692391029	5
13192	84682	90.989139400743	5
13192	85180	91.377168553708	4
13192	85300	91.493476857283	4
13192	85401	91.568779020827	7
13192	85856	91.976199993195	4
13192	86585	92.576199993195	5
13192	86946	92.879620570269	3
13192	87536	93.3845966998	6
13192	87625	93.44306659588	4
13192	87844	93.647079543353	1
13192	87979	93.792823256228	3
13192	88197	93.994660440291	1
13192	88203	94.003445391344	1
13192	89333	95.003921954763	11
13192	90421	95.858574061003	3
13192	91220	96.503921954763	15
13192	91404	96.661634513857	7
13192	91720	96.906569563726	4
13192	91787	96.971174321461	3
13192	91905	97.076314623458	3
13192	93027	97.984370196149	9
13192	93235	98.194021843303	1
13192	94253	99.001172968723	8
13192	95229	99.801172968723	9
13192	95590	100.104761863663	3
13192	95753	100.286239077561	3
13192	96057	100.607211820236	4
13192	96142	100.690180437523	3
13192	96257	100.809984801653	1
13192	96550	101.110084801753	3
13192	96963	101.54496905492	2
13192	97617	102.149939890763	5
13192	97844	102.356054913069	1
13192	98055	102.519920026512	1
13192	98285	102.676430889156	2
13192	98897	103.079523810122	4
13192	100001	103.979523810122	8
13192	100247	104.191398029537	1
13192	100573	104.497270360589	2
13192	100725	104.599614485511	1
13192	101182	104.999614485511	3
13192	101634	105.299714485611	3
13192	101963	105.599714485611	2
13192	102192	105.78631640369	0
13192	102395	105.990346883855	1
13192	102631	106.195898124792	1
13192	102639	106.209435637974	6
13192	102659	106.247612640328	6
13192	102687	106.250027787849	0
13192	103501	106.950027787849	6
13192	103885	107.358208581994	3
13192	104051	107.465801785568	3
13192	104218	107.662410774624	2
13192	104310	107.776255147743	2
13192	104821	108.271765776513	5
13192	105325	108.672059325628	5
13192	106500	109.590283484738	5
13192	106751	109.790283484738	1
13192	107067	109.990869339569	1
13192	107547	110.356458791697	0
13192	108373	111.056458791697	6
13192	108950	111.563186673375	4
13192	109531	112.021247024147	3
13192	109915	112.37533605072	10
13192	110177	112.591489419532	1
13192	110815	113.092501648003	6
13192	111569	113.892501648003	9
13192	111891	114.192572160716	2
13192	112455	114.693924222761	6
13192	113057	115.195180524147	4
13192	113508	115.595280524247	4
13192	115026	116.867595940909	8
13192	115534	117.267595940909	3
13192	115915	117.569331890048	2
13192	116482	118.075293046563	4
13192	116490	118.076058860713	4
13192	116974	118.477599237757	4
13192	116977	118.478722647673	4
13192	117081	118.575063384897	12
13192	117094	118.579970771342	1
13192	117103	118.58247962506	1
13192	118579	119.883255443563	15
13192	119062	120.283255443563	3
13192	119317	120.490229038763	1
13192	119462	120.623073231003	1
13192	119733	120.82899658692	1
13192	120335	121.232887157664	5
13192	120950	121.832887157664	5
13192	121067	121.932987157764	1
13192	121250	122.132987157764	1
13192	123023	123.536795365923	14
13192	123416	123.841691691687	2
13192	123828	124.143504670769	2
13192	123965	124.289349126319	6
13192	124166	124.44431769918	2
13192	125126	125.147256895969	7
13192	125720	125.547256895969	3
13192	126070	125.797708134103	2
13192	126531	126.097808134203	3
13192	127374	126.797808134203	6
13192	127853	127.199029489589	3
13192	128121	127.407636721049	1
13192	128167	127.418484332174	3
13192	128856	127.826275299059	5
13192	130399	128.926275299059	12
13192	131298	129.619177568149	5
13192	131347	129.633029232416	7
13192	131887	130.122385081922	4
13192	132118	130.322485082022	2
13192	132555	130.726235820709	3
13192	132846	130.929147935597	1
13192	132929	131.008101103603	3
13192	133626	131.514477844251	5
13192	133908	131.714477844251	2
13192	134184	131.920191563266	1
13192	134988	132.521105739675	5
13192	135676	133.224606890115	7
13192	135733	133.265519511816	6
13192	136207	133.671285509387	4
13192	136552	133.971285509387	2
13192	136898	134.279706834765	2
13192	137207	134.583458312983	2
13192	137270	134.637282450255	2
13192	137785	135.144797386417	5
13192	137808	135.190692713705	6
13192	138066	135.463803685888	3
13192	138081	135.494799260333	3
13193	137	20.1000000001	0.875
13193	325	20.4000000001	0.75
13193	474	20.603015870111	0.875
13193	690	20.908118231334	0.625
13193	880	21.108118231334	0.875
13193	1540	21.71311817646	0.375
13193	1554	21.718310205224	0.375
13193	1759	21.9093749052	0.625
13193	2359	22.4094749053	0.375
13193	3538	23.410527001252	-0.125
13193	4291	23.916722560787	0.5
13193	4591	24.119322984619	0
13193	4709	24.226320192789	0.75
13193	4985	24.428075361815	0.75
13193	5357	24.732867371421	0.75
13193	5511	24.835761963948	0.875
13193	5938	25.235761963948	0.625
13193	7071	26.232298609704	0.375
13193	7221	26.348784810781	-0.375
13193	7519	26.551736978532	0.875
13193	7984	26.855438017472	0.625
13193	8553	27.355438017472	0.5
13193	8821	27.557155219343	0.875
13193	9232	27.938186751799	0.25
13193	9280	27.966211277922	0.625
13193	11123	29.566311278022	-1.25
13193	12103	30.266311278022	0.25
13193	12356	30.47024894261	0.875
13193	12871	30.875968228398	0.625
13193	13189	31.145478790134	0.5
13193	13326	31.279308132271	0.625
13193	13665	31.585312624906	0.625
13193	14324	32.185312624906	0.25
13193	14768	32.491940815352	0.625
13193	14783	32.492040815452	1
13193	15038	32.692040815452	0.875
13193	15427	32.99737828838	0.75
13193	15833	33.397694275011	0.625
13193	16053	33.604984600161	0.875
13193	16325	33.815071234189	0.5
13193	16972	34.385588511438	0.75
13193	17385	34.685688511538	0.625
13193	18279	35.385688511538	0.25
13193	19094	36.091493676665	0.25
13193	19355	36.304067894862	0.875
13193	19537	36.43692510264	0.625
13193	19667	36.511717391988	0.75
13193	19702	36.538775579645	0.625
13193	19994	36.755009916961	0.875
13193	20304	37.038342311829	0.375
13193	20495	37.147758077936	0.875
13193	20720	37.347758077936	0.875
13193	21209	37.748967593655	0.5
13193	22211	38.526528581524	0.375
13193	22629	38.833091622019	0.75
13193	23450	39.533191622119	0.125
13193	24075	40.059069108465	1
13193	24598	40.459069108465	0.625
13193	24890	40.668297256541	0.875
13193	25223	40.912026011035	0.75
13193	26170	41.712126011135	-0.125
13193	27637	42.812126011135	-0.375
13193	27818	43.016942964699	0.875
13193	28053	43.221382171868	1
13193	28567	43.62647853732	0.25
13193	30609	45.327778266934	-1.375
13193	32164	46.627778266934	-0.75
13193	32504	46.943130378386	0.75
13193	32794	47.251123249792	0.75
13193	33438	47.753419995401	0.5
13193	33756	48.058007350445	0.75
13193	34832	48.958107350545	-0.5
13193	35285	49.358107350545	0.625
13193	35701	49.774718952339	0.625
13193	35946	49.977440050057	0.75
13193	36540	50.477440050057	0.5
13193	36970	50.879702284092	0.625
13193	37212	51.133237284346	0.5
13193	37290	51.180938585061	0.75
13193	38168	51.884651808759	-0.125
13193	38398	52.084651808759	0.875
13193	39060	52.586180823221	0.375
13193	39071	52.633139149705	0.375
13193	39329	52.786568107208	0.875
13193	39715	53.086668107308	0.625
13193	40412	53.686668107308	0.25
13193	41113	54.289682289574	0.625
13193	42195	55.289682289574	-0.125
13193	43221	56.095011086575	0
13193	45052	57.596199180518	-0.875
13193	45118	57.61511947708	-0.875
13193	45376	57.897905703514	0.75
13193	46813	59.000640673892	-0.375
13193	47055	59.200640673892	0.875
13193	47724	59.806596327876	0.125
13193	47911	60.015935046742	0.375
13193	48159	60.219297023694	0.875
13193	48368	60.424760015815	0.875
13193	48507	60.529030639588	1
13193	48573	60.573129525237	0.875
13193	48677	60.706942464092	-0.25
13193	49195	61.114064690062	0.5
13193	49410	61.331884093333	0.25
13193	49487	61.37562822518	0
13193	49536	61.433549231743	-0.25
13193	50275	62.03737267615	0.125
13193	50947	62.73737267615	0.25
13193	51229	62.94638424123	0.125
13193	52537	64.146848514357	-0.75
13193	53325	64.746848514357	0.375
13193	53573	64.948307623444	0.875
13193	53952	65.179121667068	0.375
13193	53985	65.253408148337	0.5
13193	54214	65.461721266884	0.875
13193	54447	65.669479202913	0.75
13193	54830	65.988097689454	0
13193	54841	65.994869189806	0.75
13193	54868	66.072193938708	0.375
13193	55428	66.572349039786	0.375
13193	55733	66.872349039786	0.75
13193	56321	67.477119728119	0.375
13193	56697	67.877219728219	0.5
13193	57683	68.710509537757	0.75
13193	58370	69.213794879354	0.25
13193	58627	69.413794879354	0.875
13193	59052	69.823193737377	0.625
13193	59277	70.028532148391	0.875
13193	59521	70.242418715424	0.875
13193	59869	70.546825430524	0.5
13193	60327	70.946825430524	0.625
13193	60556	71.146925430424	0.75
13193	60787	71.354219850311	0.875
13193	60914	71.450864608588	0.375
13193	61254	71.751056424125	0.75
13193	61992	72.351609379634	0.33333331346512
13193	62547	72.851609379634	0.375
13193	63097	73.251709379734	0.5
13193	63790	73.776458576618	0.625
13193	64687	74.476458576618	0.25
13193	65317	74.885353490466	0.625
13193	65989	75.372831896408	0.625
13193	66056	75.389729503619	0.25
13193	66543	75.791675091553	0.625
13193	66581	75.855654936281	0.625
13193	66684	75.978332472908	0
13193	66729	75.992619942957	0.875
13193	66868	76.093668629735	0.875
13193	67420	76.593668629735	0.5
13193	67647	76.798611539079	0.875
13193	68033	77.09942307455	0.75
13193	68478	77.501329314976	0.5
13193	69423	78.214940160316	0.375
13193	69924	78.601329314976	-0.625
13193	69985	78.620404950248	0.625
13193	70217	78.828455754011	0.875
13193	70393	78.930772246958	0.875
13193	70938	79.430772246958	0.5
13193	71351	79.733232875985	0.625
13193	71587	79.94094273524	0.875
13193	71809	80.150310741962	0.875
13193	72401	80.690440191329	-0.625
13193	72619	80.857920413507	0.125
13193	73042	81.158538645848	0.625
13193	74248	82.165953985503	-0.125
13193	75042	82.966053985603	0
13193	75564	83.466053985603	0.375
13193	76258	84.067814739922	0.25
13193	76370	84.170054017914	0
13193	76678	84.468108156708	0.625
13193	76916	84.675767628024	0.75
13193	77143	84.886535032311	0.875
13193	78751	86.048493985119	0
13193	79789	86.948493985119	-0.125
13193	80448	87.557412040279	0.375
13193	80678	87.714069609606	0.375
13193	80894	87.967094341249	0.625
13193	81555	88.573272117564	0.25
13193	81776	88.773272117564	0.875
13193	82228	89.178131937702	0.625
13193	83053	89.778231937802	0.25
13193	83513	90.078231937802	0.75
13193	83877	90.37942860353	0.75
13193	84511	90.864728475885	0.5
13193	84679	90.98692391029	0.375
13193	84682	90.989139400743	0.375
13193	85180	91.377168553708	0.5
13193	85300	91.493476857283	0.5
13193	85401	91.568779020827	0.125
13193	85856	91.976199993195	0.5
13193	86585	92.576199993195	0.375
13193	86946	92.879620570269	0.625
13193	87536	93.3845966998	0.25
13193	87625	93.44306659588	0.5
13193	87844	93.647079543353	0.875
13193	87979	93.792823256228	0.625
13193	88197	93.994660440291	0.875
13193	88203	94.003445391344	0.875
13193	89333	95.003921954763	-0.375
13193	90421	95.858574061003	0.625
13193	91220	96.503921954763	-0.875
13193	91404	96.661634513857	0.125
13193	91720	96.906569563726	0.5
13193	91787	96.971174321461	0.625
13193	91905	97.076314623458	0.625
13193	93027	97.984370196149	-0.125
13193	93235	98.194021843303	0.875
13193	94253	99.001172968723	0
13193	95229	99.801172968723	-0.125
13193	95590	100.104761863663	0.625
13193	95753	100.286239077561	0.625
13193	96057	100.607211820236	0.5
13193	96142	100.690180437523	0.625
13193	96257	100.809984801653	0.875
13193	96550	101.110084801753	0.625
13193	96963	101.54496905492	0.75
13193	97617	102.149939890763	0.375
13193	97844	102.356054913069	0.875
13193	98055	102.519920026512	0.875
13193	98285	102.676430889156	0.75
13193	98897	103.079523810122	0.5
13193	100001	103.979523810122	0
13193	100247	104.191398029537	0.875
13193	100573	104.497270360589	0.75
13193	100725	104.599614485511	0.875
13193	101182	104.999614485511	0.625
13193	101634	105.299714485611	0.625
13193	101963	105.599714485611	0.75
13193	102192	105.78631640369	1
13193	102395	105.990346883855	0.875
13193	102631	106.195898124792	0.875
13193	102639	106.209435637974	0.25
13193	102659	106.247612640328	0.25
13193	102687	106.250027787849	1
13193	103501	106.950027787849	0.25
13193	103885	107.358208581994	0.625
13193	104051	107.465801785568	0.625
13193	104218	107.662410774624	0.75
13193	104310	107.776255147743	0.75
13193	104821	108.271765776513	0.375
13193	105325	108.672059325628	0.375
13193	106500	109.590283484738	0.375
13193	106751	109.790283484738	0.875
13193	107067	109.990869339569	0.875
13193	107547	110.356458791697	1
13193	108373	111.056458791697	0.25
13193	108950	111.563186673375	0.5
13193	109531	112.021247024147	0.625
13193	109915	112.37533605072	-0.25
13193	110177	112.591489419532	0.875
13193	110815	113.092501648003	0.25
13193	111569	113.892501648003	-0.125
13193	111891	114.192572160716	0.75
13193	112455	114.693924222761	0.25
13193	113057	115.195180524147	0.5
13193	113508	115.595280524247	0.5
13193	115026	116.867595940909	0
13193	115534	117.267595940909	0.625
13193	115915	117.569331890048	0.75
13193	116482	118.075293046563	0.5
13193	116490	118.076058860713	0.5
13193	116974	118.477599237757	0.5
13193	116977	118.478722647673	0.5
13193	117081	118.575063384897	-0.5
13193	117094	118.579970771342	0.875
13193	117103	118.58247962506	0.875
13193	118579	119.883255443563	-0.875
13193	119062	120.283255443563	0.625
13193	119317	120.490229038763	0.875
13193	119462	120.623073231003	0.875
13193	119733	120.82899658692	0.875
13193	120335	121.232887157664	0.375
13193	120950	121.832887157664	0.375
13193	121067	121.932987157764	0.875
13193	121250	122.132987157764	0.875
13193	123023	123.536795365923	-0.75
13193	123416	123.841691691687	0.75
13193	123828	124.143504670769	0.75
13193	123965	124.289349126319	0.25
13193	124166	124.44431769918	0.75
13193	125126	125.147256895969	0.125
13193	125720	125.547256895969	0.625
13193	126070	125.797708134103	0.75
13193	126531	126.097808134203	0.625
13193	127374	126.797808134203	0.25
13193	127853	127.199029489589	0.625
13193	128121	127.407636721049	0.875
13193	128167	127.418484332174	0.625
13193	128856	127.826275299059	0.375
13193	130399	128.926275299059	-0.5
13193	131298	129.619177568149	0.375
13193	131347	129.633029232416	0.125
13193	131887	130.122385081922	0.5
13193	132118	130.322485082022	0.75
13193	132555	130.726235820709	0.625
13193	132846	130.929147935597	0.875
13193	132929	131.008101103603	0.625
13193	133626	131.514477844251	0.375
13193	133908	131.714477844251	0.75
13193	134184	131.920191563266	0.875
13193	134988	132.521105739675	0.375
13193	135676	133.224606890115	0.125
13193	135733	133.265519511816	0.25
13193	136207	133.671285509387	0.5
13193	136552	133.971285509387	0.75
13193	136898	134.279706834765	0.75
13193	137207	134.583458312983	0.75
13193	137270	134.637282450255	0.75
13193	137785	135.144797386417	0.375
13193	137808	135.190692713705	0.25
13193	138066	135.463803685888	0.625
13193	138081	135.494799260333	0.625
13194	137	20.1000000001	0.1
13194	325	20.4000000001	0.3
13194	474	20.603015870111	0.2
13194	690	20.908118231334	0.3
13194	880	21.108118231334	0.2
13194	1540	21.71311817646	0.6
13194	1554	21.718310205224	0.6
13194	1759	21.9093749052	0.4
13194	2359	22.4094749053	0.5
13194	3538	23.410527001252	1
13194	4291	23.916722560787	0.4
13194	4591	24.119322984619	0.7
13194	4709	24.226320192789	0.3
13194	4985	24.428075361815	0.2
13194	5357	24.732867371421	0.3
13194	5511	24.835761963948	0.1
13194	5938	25.235761963948	0.4
13194	7071	26.232298609704	0.6
13194	7221	26.348784810781	1.1
13194	7519	26.551736978532	0.2
13194	7984	26.855438017472	0.3
13194	8553	27.355438017472	0.5
13194	8821	27.557155219343	0.2
13194	9232	27.938186751799	0.5
13194	9280	27.966211277922	0.4
13194	11123	29.566311278022	1.6
13194	12103	30.266311278022	0.7
13194	12356	30.47024894261	0.2
13194	12871	30.875968228398	0.4
13194	13189	31.145478790134	0.5
13194	13326	31.279308132271	0.4
13194	13665	31.585312624906	0.3
13194	14324	32.185312624906	0.6
13194	14768	32.491940815352	0.3
13194	14783	32.492040815452	0
13194	15038	32.692040815452	0.2
13194	15427	32.99737828838	0.3
13194	15833	33.397694275011	0.4
13194	16053	33.604984600161	0.2
13194	16325	33.815071234189	0.2
13194	16972	34.385588511438	0.3
13194	17385	34.685688511538	0.3
13194	18279	35.385688511538	0.7
13194	19094	36.091493676665	0.7
13194	19355	36.304067894862	0.2
13194	19537	36.43692510264	0.4
13194	19667	36.511717391988	0.2
13194	19702	36.538775579645	0.3
13194	19994	36.755009916961	0.2
13194	20304	37.038342311829	0.6
13194	20495	37.147758077936	0.1
13194	20720	37.347758077936	0.2
13194	21209	37.748967593655	0.4
13194	22211	38.526528581524	0.6
13194	22629	38.833091622019	0.3
13194	23450	39.533191622119	0.7
13194	24075	40.059069108465	0
13194	24598	40.459069108465	0.4
13194	24890	40.668297256541	0.2
13194	25223	40.912026011035	0.3
13194	26170	41.712126011135	0.8
13194	27637	42.812126011135	1.1
13194	27818	43.016942964699	0.2
13194	28053	43.221382171868	0.1
13194	28567	43.62647853732	0.6
13194	30609	45.327778266934	1.7
13194	32164	46.627778266934	1.3
13194	32504	46.943130378386	0.3
13194	32794	47.251123249792	0.3
13194	33438	47.753419995401	0.5
13194	33756	48.058007350445	0.3
13194	34832	48.958107350545	0.9
13194	35285	49.358107350545	0.4
13194	35701	49.774718952339	0.4
13194	35946	49.977440050057	0.2
13194	36540	50.477440050057	0.5
13194	36970	50.879702284092	0.4
13194	37212	51.133237284346	0.5
13194	37290	51.180938585061	0.3
13194	38168	51.884651808759	0.7
13194	38398	52.084651808759	0.2
13194	39060	52.586180823221	0.5
13194	39071	52.633139149705	0.5
13194	39329	52.786568107208	0.2
13194	39715	53.086668107308	0.3
13194	40412	53.686668107308	0.6
13194	41113	54.289682289574	0.3
13194	42195	55.289682289574	1
13194	43221	56.095011086575	0.8
13194	45052	57.596199180518	1.5
13194	45118	57.61511947708	1.5
13194	45376	57.897905703514	0.3
13194	46813	59.000640673892	1.1
13194	47055	59.200640673892	0.2
13194	47724	59.806596327876	0.6
13194	47911	60.015935046742	0.6
13194	48159	60.219297023694	0.2
13194	48368	60.424760015815	0.2
13194	48507	60.529030639588	0.1
13194	48573	60.573129525237	0.2
13194	48677	60.706942464092	0.9
13194	49195	61.114064690062	0.4
13194	49410	61.331884093333	0.6
13194	49487	61.37562822518	0.8
13194	49536	61.433549231743	0.9
13194	50275	62.03737267615	0.6
13194	50947	62.73737267615	0.7
13194	51229	62.94638424123	0.8
13194	52537	64.146848514357	1.2