version 2
run Stability-59-20130528-00:53:56-21385
attr configname Stability
attr datetime 20130528-00:53:56
attr experiment Stability
attr inifile omnetpp.ini
attr iterationvars $0=1e1
attr iterationvars2 "$0=1e1, $repetition=9"
attr measurement $0=1e1
attr network Network
attr processid 21385
attr repetition 9
attr replication #9
attr resultdir results
attr runnumber 59
attr seedset 59

vector 5819  Network.churner  inGoingSizeSig:vector  ETV
vector 5732  Network.dyn_peer[3]  lookupHopsSig:vector  ETV
vector 5733  Network.dyn_peer[3]  lookupStabilitySig:vector  ETV
vector 5734  Network.dyn_peer[3]  lookupTimeSig:vector  ETV
vector 5723  Network.dyn_peer[0]  lookupHopsSig:vector  ETV
vector 5724  Network.dyn_peer[0]  lookupStabilitySig:vector  ETV
vector 5725  Network.dyn_peer[0]  lookupTimeSig:vector  ETV
vector 5756  Network.dyn_peer[11]  lookupHopsSig:vector  ETV
vector 5757  Network.dyn_peer[11]  lookupStabilitySig:vector  ETV
vector 5758  Network.dyn_peer[11]  lookupTimeSig:vector  ETV
vector 5729  Network.dyn_peer[2]  lookupHopsSig:vector  ETV
vector 5730  Network.dyn_peer[2]  lookupStabilitySig:vector  ETV
vector 5731  Network.dyn_peer[2]  lookupTimeSig:vector  ETV
vector 5735  Network.dyn_peer[4]  lookupHopsSig:vector  ETV
vector 5736  Network.dyn_peer[4]  lookupStabilitySig:vector  ETV
vector 5737  Network.dyn_peer[4]  lookupTimeSig:vector  ETV
vector 5744  Network.dyn_peer[7]  lookupHopsSig:vector  ETV
vector 5745  Network.dyn_peer[7]  lookupStabilitySig:vector  ETV
vector 5746  Network.dyn_peer[7]  lookupTimeSig:vector  ETV
vector 5777  Network.dyn_peer[18]  lookupHopsSig:vector  ETV
vector 5778  Network.dyn_peer[18]  lookupStabilitySig:vector  ETV
vector 5779  Network.dyn_peer[18]  lookupTimeSig:vector  ETV
vector 5750  Network.dyn_peer[9]  lookupHopsSig:vector  ETV
vector 5751  Network.dyn_peer[9]  lookupStabilitySig:vector  ETV
vector 5752  Network.dyn_peer[9]  lookupTimeSig:vector  ETV
vector 5765  Network.dyn_peer[14]  lookupHopsSig:vector  ETV
vector 5766  Network.dyn_peer[14]  lookupStabilitySig:vector  ETV
vector 5767  Network.dyn_peer[14]  lookupTimeSig:vector  ETV
vector 5738  Network.dyn_peer[5]  lookupHopsSig:vector  ETV
vector 5739  Network.dyn_peer[5]  lookupStabilitySig:vector  ETV
vector 5740  Network.dyn_peer[5]  lookupTimeSig:vector  ETV
vector 5741  Network.dyn_peer[6]  lookupHopsSig:vector  ETV
vector 5742  Network.dyn_peer[6]  lookupStabilitySig:vector  ETV
vector 5743  Network.dyn_peer[6]  lookupTimeSig:vector  ETV
vector 5726  Network.dyn_peer[1]  lookupHopsSig:vector  ETV
vector 5727  Network.dyn_peer[1]  lookupStabilitySig:vector  ETV
vector 5728  Network.dyn_peer[1]  lookupTimeSig:vector  ETV
vector 5786  Network.dyn_peer[21]  lookupHopsSig:vector  ETV
vector 5787  Network.dyn_peer[21]  lookupStabilitySig:vector  ETV
vector 5788  Network.dyn_peer[21]  lookupTimeSig:vector  ETV
vector 5768  Network.dyn_peer[15]  lookupHopsSig:vector  ETV
vector 5769  Network.dyn_peer[15]  lookupStabilitySig:vector  ETV
vector 5770  Network.dyn_peer[15]  lookupTimeSig:vector  ETV
vector 5771  Network.dyn_peer[16]  lookupHopsSig:vector  ETV
vector 5772  Network.dyn_peer[16]  lookupStabilitySig:vector  ETV
vector 5773  Network.dyn_peer[16]  lookupTimeSig:vector  ETV
vector 5801  Network.dyn_peer[26]  lookupHopsSig:vector  ETV
vector 5802  Network.dyn_peer[26]  lookupStabilitySig:vector  ETV
vector 5803  Network.dyn_peer[26]  lookupTimeSig:vector  ETV
vector 5774  Network.dyn_peer[17]  lookupHopsSig:vector  ETV
vector 5775  Network.dyn_peer[17]  lookupStabilitySig:vector  ETV
vector 5776  Network.dyn_peer[17]  lookupTimeSig:vector  ETV
vector 5747  Network.dyn_peer[8]  lookupHopsSig:vector  ETV
vector 5748  Network.dyn_peer[8]  lookupStabilitySig:vector  ETV
vector 5749  Network.dyn_peer[8]  lookupTimeSig:vector  ETV
vector 5753  Network.dyn_peer[10]  lookupHopsSig:vector  ETV
vector 5754  Network.dyn_peer[10]  lookupStabilitySig:vector  ETV
vector 5755  Network.dyn_peer[10]  lookupTimeSig:vector  ETV
vector 5783  Network.dyn_peer[20]  lookupHopsSig:vector  ETV
vector 5784  Network.dyn_peer[20]  lookupStabilitySig:vector  ETV
vector 5785  Network.dyn_peer[20]  lookupTimeSig:vector  ETV
vector 5816  Network.dyn_peer[31]  lookupHopsSig:vector  ETV
vector 5817  Network.dyn_peer[31]  lookupStabilitySig:vector  ETV
vector 5818  Network.dyn_peer[31]  lookupTimeSig:vector  ETV
vector 5789  Network.dyn_peer[22]  lookupHopsSig:vector  ETV
vector 5790  Network.dyn_peer[22]  lookupStabilitySig:vector  ETV
vector 5791  Network.dyn_peer[22]  lookupTimeSig:vector  ETV
vector 5762  Network.dyn_peer[13]  lookupHopsSig:vector  ETV
vector 5763  Network.dyn_peer[13]  lookupStabilitySig:vector  ETV
vector 5764  Network.dyn_peer[13]  lookupTimeSig:vector  ETV
vector 5795  Network.dyn_peer[24]  lookupHopsSig:vector  ETV
vector 5796  Network.dyn_peer[24]  lookupStabilitySig:vector  ETV
vector 5797  Network.dyn_peer[24]  lookupTimeSig:vector  ETV
vector 5798  Network.dyn_peer[25]  lookupHopsSig:vector  ETV
vector 5799  Network.dyn_peer[25]  lookupStabilitySig:vector  ETV
vector 5800  Network.dyn_peer[25]  lookupTimeSig:vector  ETV
vector 5780  Network.dyn_peer[19]  lookupHopsSig:vector  ETV
vector 5781  Network.dyn_peer[19]  lookupStabilitySig:vector  ETV
vector 5782  Network.dyn_peer[19]  lookupTimeSig:vector  ETV
vector 5810  Network.dyn_peer[29]  lookupHopsSig:vector  ETV
vector 5811  Network.dyn_peer[29]  lookupStabilitySig:vector  ETV
vector 5812  Network.dyn_peer[29]  lookupTimeSig:vector  ETV
vector 5759  Network.dyn_peer[12]  lookupHopsSig:vector  ETV
vector 5760  Network.dyn_peer[12]  lookupStabilitySig:vector  ETV
vector 5761  Network.dyn_peer[12]  lookupTimeSig:vector  ETV
vector 5792  Network.dyn_peer[23]  lookupHopsSig:vector  ETV
vector 5793  Network.dyn_peer[23]  lookupStabilitySig:vector  ETV
vector 5794  Network.dyn_peer[23]  lookupTimeSig:vector  ETV
vector 5807  Network.dyn_peer[28]  lookupHopsSig:vector  ETV
vector 5808  Network.dyn_peer[28]  lookupStabilitySig:vector  ETV
vector 5809  Network.dyn_peer[28]  lookupTimeSig:vector  ETV
vector 5813  Network.dyn_peer[30]  lookupHopsSig:vector  ETV
vector 5814  Network.dyn_peer[30]  lookupStabilitySig:vector  ETV
vector 5815  Network.dyn_peer[30]  lookupTimeSig:vector  ETV
vector 5804  Network.dyn_peer[27]  lookupHopsSig:vector  ETV
vector 5805  Network.dyn_peer[27]  lookupStabilitySig:vector  ETV
vector 5806  Network.dyn_peer[27]  lookupTimeSig:vector  ETV
5723	63	20.11	1
5723	456	20.719617667475	5
5723	1168	21.629717667475	9
5723	2046	22.429717667475	7
5723	2598	22.937273991822	4
5723	3213	23.44500015651	4
5723	3576	23.752433637579	2
5723	3643	23.836782535488	2
5723	3710	23.869129030458	1
5723	3772	23.928288200924	9
5723	4017	24.161360622039	3
5723	5546	25.374984860324	13
5723	7025	26.574984860324	12
5723	7342	26.827032820817	9
5723	7802	27.137132820817	3
5723	8241	27.437132820817	2
5723	8715	27.846265331859	3
5723	8911	28.062991648828	1
5723	10040	28.961069952944	9
5723	10695	29.461069952944	5
5723	11119	29.76764505236	2
5723	11616	30.169981356852	4
5723	11791	30.359594418584	4
5723	11975	30.492413440033	2
5723	12132	30.659946125641	2
5723	12792	31.243565333584	11
5723	12878	31.29366949315	9
5723	13304	31.606699936347	4
5723	14679	32.806699936347	14
5723	15399	33.416799936347	7
5723	15894	33.916799936347	4
5723	16225	34.226899936347	3
5723	17041	34.826899936347	5
5723	17570	35.233888013553	8
5723	17820	35.439416858519	5
5723	17823	35.439972674284	1
5723	18432	35.857731503655	4
5723	19231	36.457731503655	5
5723	19611	36.761384718358	1
5723	19722	36.857779984282	4
5723	19981	37.072817062075	2
5723	21060	37.903017062075	6
5723	21377	38.203017062075	2
5723	21777	38.509063887577	2
5723	22445	39.111652305693	5
5723	22710	39.321752305693	2
5723	23156	39.621752305693	3
5723	23294	39.72216425539	1
5723	23741	40.046036942131	3
5723	23993	40.254398870893	1
5723	24344	40.56798216197	3
5723	24938	41.16798216197	5
5723	25592	41.752816542334	2
5723	25781	41.870111063886	1
5723	26289	42.270111063886	3
5723	26790	42.678494140293	3
5723	27069	42.963018075551	2
5723	27427	43.271964669411	2
5723	27739	43.581918244228	2
5723	28099	43.882355833536	2
5723	28117	43.887063995037	12
5723	28255	44.00166154253	1
5723	28752	44.40166154253	3
5723	29044	44.606778804863	2
5723	29125	44.693593976151	2
5723	30071	45.403693976151	7
5723	30349	45.703693976151	2
5723	30830	46.088274302127	1
5723	31308	46.495845283655	3
5723	32116	47.215828567655	8
5723	32536	47.515828567655	2
5723	34182	48.834131192523	14
5723	34744	49.334131192523	4
5723	36345	50.538596070395	13
5723	36351	50.542945180337	13
5723	36890	50.948861517672	3
5723	37847	51.659090661439	8
5723	38745	52.359090661439	6
5723	38925	52.520958351232	7
5723	39236	52.768360145778	3
5723	39831	53.186111275166	4
5723	40040	53.390048293889	1
5723	40369	53.697762291105	2
5723	40671	54.004416984002	2
5723	40873	54.217585185093	1
5723	40880	54.222274354651	1
5723	41546	54.835507176014	6
5723	42496	55.635507176014	7
5723	42860	55.939599404974	2
5723	42865	55.941092774796	2
5723	42867	55.941448275838	2
5723	43259	56.25314413722	3
5723	44064	56.95314413722	6
5723	44491	57.281865973301	2
5723	44811	57.495902585965	1
5723	44832	57.506002585965	0
5723	45242	57.806002585965	2
5723	45870	58.310812789232	4
5723	47576	59.848733978669	7
5723	47838	60.115959835521	11
5723	47850	60.120663648305	19
5723	48292	60.530763648305	5
5723	48755	60.930763648305	3
5723	49248	61.350949280525	4
5723	49571	61.577917653771	2
5723	52452	63.719026270188	12
5723	53323	64.519026270188	9
5723	54419	65.461887217705	3
5723	55533	66.429180248931	7
5723	55564	66.461887217705	10
5723	56265	67.129949903052	7
5723	56554	67.363602103424	9
5723	56657	67.43662766615	8
5723	56712	67.468479855561	0
5723	57481	68.084255524675	7
5723	57752	68.284255524675	1
5723	58107	68.590268362291	2
5723	59667	69.700368362291	12
5723	60785	70.700368362291	11
5723	61284	71.101211076961	3
5723	61584	71.32031675396	2
5723	62287	71.92031675396	5
5723	62531	72.121645015142	1
5723	63104	72.629496446283	4
5723	63169	72.671229302843	4
5723	63542	73.036403753441	3
5723	63667	73.125532193027	6
5723	63762	73.175497230516	6
5723	63797	73.212380632697	4
5723	63932	73.339452233971	2
5723	64115	73.452392261258	1
5723	64850	74.052392261258	5
5723	65291	74.353101077621	2
5723	66175	75.05745355896	6
5723	66900	75.767139595412	7
5723	67150	75.972227805226	1
5723	67501	76.288506984931	3
5723	68798	77.488506984931	13
5723	69036	77.697653880369	3
5723	69261	77.909177653245	3
5723	69590	78.201148870557	4
5723	69901	78.511248870557	3
5723	70173	78.811248870557	2
5723	70841	79.430441572407	6
5723	71766	80.130441572407	7
5723	72577	80.746116673996	6
5723	73268	81.246116673996	4
5723	73583	81.451739406584	1
5723	73879	81.658818451457	1
5723	74948	82.477367430361	9
5723	75744	83.077367430361	6
5723	76101	83.380464320732	2
5723	76853	83.960033562437	4
5723	78972	85.960033562437	21
5723	79550	86.464177113345	4
5723	80199	86.982942424967	6
5723	80438	87.182942424967	1
5723	80930	87.592084747249	1
5723	81850	88.319590162948	1
5723	82084	88.519590162948	1
5723	82600	88.924301968688	3
5723	83554	89.873153747865	9
5723	83667	89.983253747865	1
5723	85081	91.283253747865	13
5723	85650	91.684936364034	3
5723	85971	91.885581116352	1
5723	85973	91.890130926281	1
5723	86766	92.500372527024	7
5723	87694	93.200372527024	7
5723	89106	94.407849464704	14
5723	90196	95.309971136794	8
5723	90469	95.518343498058	1
5723	90651	95.685894482542	12
5723	90735	95.720864409705	1
5723	91601	96.421147698765	6
5723	91677	96.487226522557	7
5723	91845	96.595178076362	8
5723	91991	96.684828815962	8
5723	92865	97.398163103942	7
5723	93368	97.898163103942	4
5723	93882	98.404585291965	4
5723	94113	98.615093355274	2
5723	94264	98.744027188545	7
5723	94337	98.81669480876	1
5723	94957	99.340407192156	5
5723	95404	99.640407192156	2
5723	95805	99.950569378153	2
5723	96144	100.254881863921	2
5723	96530	100.569242101137	3
5723	97014	100.969242101137	3
5723	97786	101.678495905139	6
5723	98044	101.883837250338	1
5723	98276	102.095098843986	2
5723	98506	102.295098843986	1
5723	98709	102.50368100897	1
5723	99219	103.008210259739	5
5723	99316	103.102609652452	4
5723	100676	104.122709652452	12
5723	100912	104.322709652452	1
5723	102234	105.436667027515	11
5723	102539	105.741325514004	2
5723	102883	105.986477520627	1
5723	102924	106.043397685735	2
5723	103448	106.455834141507	4
5723	103819	106.78922723399	7
5723	104199	107.100601972688	3
5723	104994	107.800601972688	6
5723	105246	108.007049248814	1
5723	105298	108.076472355061	1
5723	106161	108.686579538228	6
5723	107045	109.386579538228	7
5723	107360	109.703739490332	2
5723	107560	109.907932119737	1
5723	107618	109.960492169789	6
5723	108009	110.316020392236	3
5723	108150	110.431956263805	5
5723	108217	110.503728668819	9
5723	108782	110.921782225972	6
5723	109690	111.681361316253	2
5723	110048	111.998965216727	4
5723	110987	112.798965216727	7
5723	111904	113.602758802036	7
5723	112081	113.810806272155	1
5723	112605	114.311982374143	5
5723	112634	114.368404540713	5
5723	112948	114.613849709211	2
5723	112982	114.668504540713	8
5723	113127	114.776744629256	3
5723	113348	114.9769022843	2
5723	113987	115.495507632369	5
5723	114571	116.197378881546	6
5723	114848	116.428609468306	1
5723	115185	116.728609468306	2
5723	115829	117.206198441414	3
5723	116254	117.530669532085	8
5723	116283	117.536812498041	8
5723	116579	117.807442673805	5
5723	116739	117.924894234913	4
5723	116782	117.945897994996	4
5723	116807	117.957745899055	0
5723	117652	118.557745899055	6
5723	119653	120.367845899055	19
5723	120454	121.067845899055	6
5723	121273	121.773851976452	6
5723	121383	121.872503281869	3
5723	121758	122.238238736259	10
5723	122247	122.648338736259	5
5723	123050	123.248338736259	5
5723	123605	123.652526817741	4
5723	124066	123.970494359284	3
5723	124976	124.770494359284	7
5723	125195	124.97417250289	2
5723	125326	125.088652425155	1
5723	125520	125.261075868382	3
5723	125559	125.294124597088	2
5723	126304	125.806931140257	6
5723	126669	126.106931140257	2
5723	127061	126.414289933361	2
5723	127107	126.442426179174	2
5723	127361	126.621828314575	1
5723	127893	127.034567179769	4
5723	128607	127.634567179769	6
5723	128981	127.954635678101	2
5723	129446	128.364735678101	4
5723	130110	128.964735678101	5
5723	130601	129.374531770946	3
5723	131062	129.67778706961	3
5723	131064	129.677809565692	3
5723	131602	130.258502588144	7
5723	131718	130.35936834223	1
5723	131745	130.378109301378	6
5723	131868	130.478502588144	2
5723	131878	130.482574934021	1
5723	132074	130.649852261106	1
5723	132098	130.66815690213	2
5723	133451	131.888226949662	15
5723	134223	132.588226949662	8
5723	134461	132.894093389118	3
5723	134521	132.985062291015	2
5723	134656	133.194670601152	2
5724	63	20.11	0.875
5724	456	20.719617667475	0.375
5724	1168	21.629717667475	-0.125
5724	2046	22.429717667475	0.125
5724	2598	22.937273991822	0.5
5724	3213	23.44500015651	0.5
5724	3576	23.752433637579	0.75
5724	3643	23.836782535488	0.75
5724	3710	23.869129030458	0.875
5724	3772	23.928288200924	-0.125
5724	4017	24.161360622039	0.625
5724	5546	25.374984860324	-0.625
5724	7025	26.574984860324	-0.5
5724	7342	26.827032820817	-0.125
5724	7802	27.137132820817	0.625
5724	8241	27.437132820817	0.75
5724	8715	27.846265331859	0.625
5724	8911	28.062991648828	0.875
5724	10040	28.961069952944	-0.125
5724	10695	29.461069952944	0.375
5724	11119	29.76764505236	0.75
5724	11616	30.169981356852	0.5
5724	11791	30.359594418584	0.5
5724	11975	30.492413440033	0.75
5724	12132	30.659946125641	0.75
5724	12792	31.243565333584	-0.375
5724	12878	31.29366949315	-0.125
5724	13304	31.606699936347	0.5
5724	14679	32.806699936347	-0.75
5724	15399	33.416799936347	0.125
5724	15894	33.916799936347	0.5
5724	16225	34.226899936347	0.625
5724	17041	34.826899936347	0.375
5724	17570	35.233888013553	0
5724	17820	35.439416858519	0.375
5724	17823	35.439972674284	0.875
5724	18432	35.857731503655	0.5
5724	19231	36.457731503655	0.375
5724	19611	36.761384718358	0.875
5724	19722	36.857779984282	0.5
5724	19981	37.072817062075	0.75
5724	21060	37.903017062075	0.25
5724	21377	38.203017062075	0.75
5724	21777	38.509063887577	0.75
5724	22445	39.111652305693	0.375
5724	22710	39.321752305693	0.75
5724	23156	39.621752305693	0.625
5724	23294	39.72216425539	0.875
5724	23741	40.046036942131	0.625
5724	23993	40.254398870893	0.875
5724	24344	40.56798216197	0.625
5724	24938	41.16798216197	0.375
5724	25592	41.752816542334	0.75
5724	25781	41.870111063886	0.875
5724	26289	42.270111063886	0.625
5724	26790	42.678494140293	0.625
5724	27069	42.963018075551	0.75
5724	27427	43.271964669411	0.75
5724	27739	43.581918244228	0.75
5724	28099	43.882355833536	0.75
5724	28117	43.887063995037	-0.5
5724	28255	44.00166154253	0.875
5724	28752	44.40166154253	0.625
5724	29044	44.606778804863	0.75
5724	29125	44.693593976151	0.75
5724	30071	45.403693976151	0.125
5724	30349	45.703693976151	0.75
5724	30830	46.088274302127	0.875
5724	31308	46.495845283655	0.625
5724	32116	47.215828567655	0
5724	32536	47.515828567655	0.75
5724	34182	48.834131192523	-0.75
5724	34744	49.334131192523	0.5
5724	36345	50.538596070395	-0.625
5724	36351	50.542945180337	-0.625
5724	36890	50.948861517672	0.625
5724	37847	51.659090661439	0
5724	38745	52.359090661439	0.25
5724	38925	52.520958351232	0.125
5724	39236	52.768360145778	0.625
5724	39831	53.186111275166	0.5
5724	40040	53.390048293889	0.875
5724	40369	53.697762291105	0.75
5724	40671	54.004416984002	0.75
5724	40873	54.217585185093	0.875
5724	40880	54.222274354651	0.875
5724	41546	54.835507176014	0.25
5724	42496	55.635507176014	0.125
5724	42860	55.939599404974	0.75
5724	42865	55.941092774796	0.75
5724	42867	55.941448275838	0.75
5724	43259	56.25314413722	0.625
5724	44064	56.95314413722	0.25
5724	44491	57.281865973301	0.75
5724	44811	57.495902585965	0.875
5724	44832	57.506002585965	1
5724	45242	57.806002585965	0.75
5724	45870	58.310812789232	0.5
5724	47576	59.848733978669	0.125
5724	47838	60.115959835521	-0.375
5724	47850	60.120663648305	-1.375
5724	48292	60.530763648305	0.375
5724	48755	60.930763648305	0.625
5724	49248	61.350949280525	0.5
5724	49571	61.577917653771	0.75
5724	52452	63.719026270188	-0.5
5724	53323	64.519026270188	-0.125
5724	54419	65.461887217705	0.625
5724	55533	66.429180248931	0.125
5724	55564	66.461887217705	-0.25
5724	56265	67.129949903052	0.125
5724	56554	67.363602103424	-0.125
5724	56657	67.43662766615	0
5724	56712	67.468479855561	1
5724	57481	68.084255524675	0.125
5724	57752	68.284255524675	0.875
5724	58107	68.590268362291	0.75
5724	59667	69.700368362291	-0.5
5724	60785	70.700368362291	-0.375
5724	61284	71.101211076961	0.625
5724	61584	71.32031675396	0.75
5724	62287	71.92031675396	0.375
5724	62531	72.121645015142	0.875
5724	63104	72.629496446283	0.5
5724	63169	72.671229302843	0.5
5724	63542	73.036403753441	0.625
5724	63667	73.125532193027	0.25
5724	63762	73.175497230516	0.25
5724	63797	73.212380632697	0.5
5724	63932	73.339452233971	0.75
5724	64115	73.452392261258	0.875
5724	64850	74.052392261258	0.375
5724	65291	74.353101077621	0.75
5724	66175	75.05745355896	0.25
5724	66900	75.767139595412	0.125
5724	67150	75.972227805226	0.875
5724	67501	76.288506984931	0.625
5724	68798	77.488506984931	-0.625
5724	69036	77.697653880369	0.625
5724	69261	77.909177653245	0.625
5724	69590	78.201148870557	0.5
5724	69901	78.511248870557	0.625
5724	70173	78.811248870557	0.75
5724	70841	79.430441572407	0.25
5724	71766	80.130441572407	0.125
5724	72577	80.746116673996	0.25
5724	73268	81.246116673996	0.5
5724	73583	81.451739406584	0.875
5724	73879	81.658818451457	0.875
5724	74948	82.477367430361	-0.125
5724	75744	83.077367430361	0.25
5724	76101	83.380464320732	0.75
5724	76853	83.960033562437	0.5
5724	78972	85.960033562437	-1.625
5724	79550	86.464177113345	0.5
5724	80199	86.982942424967	0.25
5724	80438	87.182942424967	0.875
5724	80930	87.592084747249	0.875
5724	81850	88.319590162948	0.875
5724	82084	88.519590162948	0.875
5724	82600	88.924301968688	0.625
5724	83554	89.873153747865	-0.125
5724	83667	89.983253747865	0.875
5724	85081	91.283253747865	-0.625
5724	85650	91.684936364034	0.625
5724	85971	91.885581116352	0.875
5724	85973	91.890130926281	0.875
5724	86766	92.500372527024	0.125
5724	87694	93.200372527024	0.125
5724	89106	94.407849464704	-0.75
5724	90196	95.309971136794	0
5724	90469	95.518343498058	0.875
5724	90651	95.685894482542	-0.5
5724	90735	95.720864409705	0.875
5724	91601	96.421147698765	0.25
5724	91677	96.487226522557	0.125
5724	91845	96.595178076362	0
5724	91991	96.684828815962	0
5724	92865	97.398163103942	0.125
5724	93368	97.898163103942	0.5
5724	93882	98.404585291965	0.5
5724	94113	98.615093355274	0.75
5724	94264	98.744027188545	0.125
5724	94337	98.81669480876	0.875
5724	94957	99.340407192156	0.375
5724	95404	99.640407192156	0.75
5724	95805	99.950569378153	0.75
5724	96144	100.254881863921	0.75
5724	96530	100.569242101137	0.625
5724	97014	100.969242101137	0.625
5724	97786	101.678495905139	0.25
5724	98044	101.883837250338	0.875
5724	98276	102.095098843986	0.75
5724	98506	102.295098843986	0.875
5724	98709	102.50368100897	0.875
5724	99219	103.008210259739	0.375
5724	99316	103.102609652452	0.55555555224419
5724	100676	104.122709652452	-0.5
5724	100912	104.322709652452	0.875
5724	102234	105.436667027515	-0.375
5724	102539	105.741325514004	0.75
5724	102883	105.986477520627	0.875
5724	102924	106.043397685735	0.75
5724	103448	106.455834141507	0.5
5724	103819	106.78922723399	0.125
5724	104199	107.100601972688	0.625
5724	104994	107.800601972688	0.25
5724	105246	108.007049248814	0.875
5724	105298	108.076472355061	0.875
5724	106161	108.686579538228	0.25
5724	107045	109.386579538228	0.125
5724	107360	109.703739490332	0.75
5724	107560	109.907932119737	0.875
5724	107618	109.960492169789	0.25
5724	108009	110.316020392236	0.625
5724	108150	110.431956263805	0.375
5724	108217	110.503728668819	-0.125
5724	108782	110.921782225972	0.25
5724	109690	111.681361316253	0.75
5724	110048	111.998965216727	0.5
5724	110987	112.798965216727	0.125
5724	111904	113.602758802036	0.125
5724	112081	113.810806272155	0.875
5724	112605	114.311982374143	0.375
5724	112634	114.368404540713	0.44444441795349
5724	112948	114.613849709211	0.75
5724	112982	114.668504540713	0
5724	113127	114.776744629256	0.625
5724	113348	114.9769022843	0.75
5724	113987	115.495507632369	0.375
5724	114571	116.197378881546	0.25
5724	114848	116.428609468306	0.875
5724	115185	116.728609468306	0.75
5724	115829	117.206198441414	0.625
5724	116254	117.530669532085	0
5724	116283	117.536812498041	0
5724	116579	117.807442673805	0.375
5724	116739	117.924894234913	0.5
5724	116782	117.945897994996	0.5
5724	116807	117.957745899055	1
5724	117652	118.557745899055	0.25
5724	119653	120.367845899055	-1.375
5724	120454	121.067845899055	0.25
5724	121273	121.773851976452	0.25
5724	121383	121.872503281869	0.625
5724	121758	122.238238736259	-0.25
5724	122247	122.648338736259	0.375
5724	123050	123.248338736259	0.375
5724	123605	123.652526817741	0.5
5724	124066	123.970494359284	0.625
5724	124976	124.770494359284	0.125
5724	125195	124.97417250289	0.75
5724	125326	125.088652425155	0.875
5724	125520	125.261075868382	0.625
5724	125559	125.294124597088	0.75
5724	126304	125.806931140257	0.25
5724	126669	126.106931140257	0.75
5724	127061	126.414289933361	0.77777777612209
5724	127107	126.442426179174	0.75
5724	127361	126.621828314575	0.875
5724	127893	127.034567179769	0.5
5724	128607	127.634567179769	0.25
5724	128981	127.954635678101	0.75
5724	129446	128.364735678101	0.5
5724	130110	128.964735678101	0.375
5724	130601	129.374531770946	0.625
5724	131062	129.67778706961	0.625
5724	131064	129.677809565692	0.625
5724	131602	130.258502588144	0.125
5724	131718	130.35936834223	0.875
5724	131745	130.378109301378	0.25
5724	131868	130.478502588144	0.75
5724	131878	130.482574934021	0.875
5724	132074	130.649852261106	0.875
5724	132098	130.66815690213	0.75
5724	133451	131.888226949662	-0.875
5724	134223	132.588226949662	0
5724	134461	132.894093389118	0.625
5724	134521	132.985062291015	0.75
5724	134656	133.194670601152	0.75
5725	63	20.11	0.1
5725	456	20.719617667475	0.6
5725	1168	21.629717667475	0.9
5725	2046	22.429717667475	0.8
5725	2598	22.937273991822	0.5
5725	3213	23.44500015651	0.5
5725	3576	23.752433637579	0.3
5725	3643	23.836782535488	0.3
5725	3710	23.869129030458	0.2
5725	3772	23.928288200924	0.9
5725	4017	24.161360622039	0.4
5725	5546	25.374984860324	1.2
5725	7025	26.574984860324	1.2
5725	7342	26.827032820817	0.9
5725	7802	27.137132820817	0.3
5725	8241	27.437132820817	0.3
5725	8715	27.846265331859	0.4
5725	8911	28.062991648828	0.2
5725	10040	28.961069952944	0.8
5725	10695	29.461069952944	0.5
5725	11119	29.76764505236	0.3
5725	11616	30.169981356852	0.4
5725	11791	30.359594418584	0.5
5725	11975	30.492413440033	0.3
5725	12132	30.659946125641	0.3
5725	12792	31.243565333584	1.2
5725	12878	31.29366949315	0.8
5725	13304	31.606699936347	0.3
5725	14679	32.806699936347	1.2
5725	15399	33.416799936347	0.6
5725	15894	33.916799936347	0.5
5725	16225	34.226899936347	0.3
5725	17041	34.826899936347	0.6
5725	17570	35.233888013553	0.8
5725	17820	35.439416858519	0.6
5725	17823	35.439972674284	0.2
5725	18432	35.857731503655	0.4
5725	19231	36.457731503655	0.6
5725	19611	36.761384718358	0.2
5725	19722	36.857779984282	0.4
5725	19981	37.072817062075	0.2
5725	21060	37.903017062075	0.6
5725	21377	38.203017062075	0.3
5725	21777	38.509063887577	0.3
5725	22445	39.111652305693	0.6
5725	22710	39.321752305693	0.2
5725	23156	39.621752305693	0.3
5725	23294	39.72216425539	0.1
5725	23741	40.046036942131	0.3
5725	23993	40.254398870893	0.2
5725	24344	40.56798216197	0.3
5725	24938	41.16798216197	0.6
5725	25592	41.752816542334	0.3
5725	25781	41.870111063886	0.1
5725	26289	42.270111063886	0.4
5725	26790	42.678494140293	0.4
5725	27069	42.963018075551	0.3
5725	27427	43.271964669411	0.3
5725	27739	43.581918244228	0.3
5725	28099	43.882355833536	0.3
5725	28117	43.887063995037	1.2
5725	28255	44.00166154253	0.1
5725	28752	44.40166154253	0.4
5725	29044	44.606778804863	0.2
5725	29125	44.693593976151	0.2
5725	30071	45.403693976151	0.7
5725	30349	45.703693976151	0.3
5725	30830	46.088274302127	0.2
5725	31308	46.495845283655	0.4
5725	32116	47.215828567655	0.7
5725	32536	47.515828567655	0.3
5725	34182	48.834131192523	1.3
5725	34744	49.334131192523	0.5
5725	36345	50.538596070395	1.2
5725	36351	50.542945180337	1.2
5725	36890	50.948861517672	0.4
5725	37847	51.659090661439	0.7
5725	38745	52.359090661439	0.7
5725	38925	52.520958351232	0.6
5725	39236	52.768360145778	0.4
5725	39831	53.186111275166	0.4
5725	40040	53.390048293889	0.2
5725	40369	53.697762291105	0.3
5725	40671	54.004416984002	0.3
5725	40873	54.217585185093	0.2
5725	40880	54.222274354651	0.2
5725	41546	54.835507176014	0.6
5725	42496	55.635507176014	0.8
5725	42860	55.939599404974	0.3
5725	42865	55.941092774796	0.3
5725	42867	55.941448275838	0.3
5725	43259	56.25314413722	0.3
5725	44064	56.95314413722	0.7
5725	44491	57.281865973301	0.3
5725	44811	57.495902585965	0.2
5725	44832	57.506002585965	0
5725	45242	57.806002585965	0.3
5725	45870	58.310812789232	0.5
5725	47576	59.848733978669	0.7
5725	47838	60.115959835521	1
5725	47850	60.120663648305	1.8
5725	48292	60.530763648305	0.4
5725	48755	60.930763648305	0.4
5725	49248	61.350949280525	0.5
5725	49571	61.577917653771	0.2
5725	52452	63.719026270188	1.1
5725	53323	64.519026270188	0.8
5725	54419	65.461887217705	0.3
5725	55533	66.429180248931	0.8
5725	55564	66.461887217705	1
5725	56265	67.129949903052	0.7
5725	56554	67.363602103424	0.9
5725	56657	67.43662766615	0.9
5725	56712	67.468479855561	0.1
5725	57481	68.084255524675	0.6
5725	57752	68.284255524675	0.2
5725	58107	68.590268362291	0.3
5725	59667	69.700368362291	1.1
5725	60785	70.700368362291	1
5725	61284	71.101211076961	0.4
5725	61584	71.32031675396	0.2
5725	62287	71.92031675396	0.6
5725	62531	72.121645015142	0.2
5725	63104	72.629496446283	0.5
5725	63169	72.671229302843	0.5
5725	63542	73.036403753441	0.4
5725	63667	73.125532193027	0.7
5725	63762	73.175497230516	0.5
5725	63797	73.212380632697	0.5
5725	63932	73.339452233971	0.3
5725	64115	73.452392261258	0.1
5725	64850	74.052392261258	0.6
5725	65291	74.353101077621	0.3
5725	66175	75.05745355896	0.7
5725	66900	75.767139595412	0.7
5725	67150	75.972227805226	0.2
5725	67501	76.288506984931	0.3
5725	68798	77.488506984931	1.2
5725	69036	77.697653880369	0.2
5725	69261	77.909177653245	0.4
5725	69590	78.201148870557	0.5
5725	69901	78.511248870557	0.3
5725	70173	78.811248870557	0.3
5725	70841	79.430441572407	0.6
5725	71766	80.130441572407	0.7
5725	72577	80.746116673996	0.6
5725	73268	81.246116673996	0.5
5725	73583	81.451739406584	0.2
5725	73879	81.658818451457	0.2
5725	74948	82.477367430361	0.8
5725	75744	83.077367430361	0.6
5725	76101	83.380464320732	0.3
5725	76853	83.960033562437	0.4
5725	78972	85.960033562437	2
5725	79550	86.464177113345	0.5
5725	80199	86.982942424967	0.5
5725	80438	87.182942424967	0.2
5725	80930	87.592084747249	0.1
5725	81850	88.319590162948	0.1
5725	82084	88.519590162948	0.2
5725	82600	88.924301968688	0.4
5725	83554	89.873153747865	1
5725	83667	89.983253747865	0.1
5725	85081	91.283253747865	1.3
5725	85650	91.684936364034	0.4
5725	85971	91.885581116352	0.2
5725	85973	91.890130926281	0.2
5725	86766	92.500372527024	0.6
5725	87694	93.200372527024	0.7
5725	89106	94.407849464704	1.2
5725	90196	95.309971136794	0.9
5725	90469	95.518343498058	0.2
5725	90651	95.685894482542	1.1
5725	90735	95.720864409705	0.2
5725	91601	96.421147698765	0.7
5725	91677	96.487226522557	0.8
5725	91845	96.595178076362	0.9
5725	91991	96.684828815962	0.7
5725	92865	97.398163103942	0.7
5725	93368	97.898163103942	0.5
5725	93882	98.404585291965	0.5
5725	94113	98.615093355274	0.2
5725	94264	98.744027188545	0.8
5725	94337	98.81669480876	0.2
5725	94957	99.340407192156	0.5
5725	95404	99.640407192156	0.3
5725	95805	99.950569378153	0.3
5725	96144	100.254881863921	0.3
5725	96530	100.569242101137	0.3
5725	97014	100.969242101137	0.4
5725	97786	101.678495905139	0.7
5725	98044	101.883837250338	0.2
5725	98276	102.095098843986	0.2
5725	98506	102.295098843986	0.2
5725	98709	102.50368100897	0.2
5725	99219	103.008210259739	0.5
5725	99316	103.102609652452	0.5