file 1054272 1369933136                                         
version 2
run Stability-135-20130528-00:59:36-21385
attr configname Stability
attr datetime 20130528-00:59:36
attr experiment Stability
attr inifile omnetpp.ini
attr iterationvars $0=1e-7
attr iterationvars2 "$0=1e-7, $repetition=5"
attr measurement $0=1e-7
attr network Network
attr processid 21385
attr repetition 5
attr replication #5
attr resultdir results
attr runnumber 135
attr seedset 135
vector 13191  Network.churner  inGoingSizeSig:vector  ETV
13191	925731 128541 22 139694 20 137.976950024376 4097 0 31 125788 3883634
vector 13095  Network.dyn_peer[0]  lookupHopsSig:vector  ETV
13095	6538 8843 29 138580 20.0000000001 136.662106315981 291 0 16 1316 9066
vector 13096  Network.dyn_peer[0]  lookupStabilitySig:vector  ETV
13096	15381 9774 29 138580 20.0000000001 136.662106315981 291 -1 1 126.52777777612 103.69868826903
vector 13097  Network.dyn_peer[0]  lookupTimeSig:vector  ETV
13097	25155 9374 29 138580 20.0000000001 136.662106315981 291 0 1.6 145.5 98.99
vector 13137  Network.dyn_peer[14]  lookupHopsSig:vector  ETV
13137	410902 8886 75 139658 20.0000000015 137.939708908667 292 0 23 1388 10488
vector 13138  Network.dyn_peer[14]  lookupStabilitySig:vector  ETV
13138	419788 9833 75 139658 20.0000000015 137.939708908667 292 -1.875 1 118.65277776122 108.96739968179
vector 13139  Network.dyn_peer[14]  lookupTimeSig:vector  ETV
13139	429621 9422 75 139658 20.0000000015 137.939708908667 292 0 2.2 151.6 110.04
vector 13149  Network.dyn_peer[18]  lookupHopsSig:vector  ETV
13149	522479 8582 91 139520 20.0000000019 137.651430143362 281 0 30 1371 11139
vector 13150  Network.dyn_peer[18]  lookupStabilitySig:vector  ETV
13150	531061 9499 91 139520 20.0000000019 137.651430143362 281 -2.75 1 109.91666661203 112.27353395982
vector 13151  Network.dyn_peer[18]  lookupTimeSig:vector  ETV
13151	540560 9089 91 139520 20.0000000019 137.651430143362 281 0 2.5 146.9 109.23
vector 13164  Network.dyn_peer[23]  lookupHopsSig:vector  ETV
13164	668054 9312 110 138424 20.0000000024 136.546198150212 305 0 20 1222 7934
vector 13165  Network.dyn_peer[23]  lookupStabilitySig:vector  ETV
13165	677366 10348 110 138424 20.0000000024 136.546198150212 305 -1.5 1 152.25 123.46875
vector 13166  Network.dyn_peer[23]  lookupTimeSig:vector  ETV
13166	687714 9887 110 138424 20.0000000024 136.546198150212 305 0 1.9 138.4 87.28
vector 13176  Network.dyn_peer[27]  lookupHopsSig:vector  ETV
13176	780651 9178 126 138905 20.0000000028 136.94827510854 301 0 28 1278 8810
vector 13177  Network.dyn_peer[27]  lookupStabilitySig:vector  ETV
13177	789829 10229 126 138905 20.0000000028 136.94827510854 301 -2.5 1 141.47222218663 119.39737650826
vector 13178  Network.dyn_peer[27]  lookupTimeSig:vector  ETV
13178	800058 9731 126 138905 20.0000000028 136.94827510854 301 0 2.2 144.1 94.35
vector 13098  Network.dyn_peer[1]  lookupHopsSig:vector  ETV
13098	34529 9821 146 139681 20.1000000002 137.968872366539 322 0 20 1296 8296
vector 13099  Network.dyn_peer[1]  lookupStabilitySig:vector  ETV
13099	44350 10902 146 139681 20.1000000002 137.968872366539 322 -1.5 1 160.11111109704 127.76195985815
vector 13100  Network.dyn_peer[1]  lookupTimeSig:vector  ETV
13100	55252 10418 146 139681 20.1000000002 137.968872366539 322 0 1.9 146.2 90.36
vector 13107  Network.dyn_peer[4]  lookupHopsSig:vector  ETV
13107	123110 8738 153 138937 20.1000000005 136.959960592045 287 0 24 1301 9555
vector 13108  Network.dyn_peer[4]  lookupStabilitySig:vector  ETV
13108	131848 9673 153 138937 20.1000000005 136.959960592045 287 -2 1 124.44444441795 111.10378084065
vector 13109  Network.dyn_peer[4]  lookupTimeSig:vector  ETV
13109	141521 9268 153 138937 20.1000000005 136.959960592045 287 0 2.2 142.9 100.07
vector 13110  Network.dyn_peer[5]  lookupHopsSig:vector  ETV
13110	150789 9004 158 139265 20.1000000006 137.335772789102 296 0 15 1246 7782
vector 13111  Network.dyn_peer[5]  lookupStabilitySig:vector  ETV
13111	159793 9965 158 139265 20.1000000006 137.335772789102 296 -0.875 1 140.45833328366 106.23823298201
vector 13112  Network.dyn_peer[5]  lookupTimeSig:vector  ETV
13112	169758 9560 158 139265 20.1000000006 137.335772789102 296 0 1.5 139.5 85.73
vector 13113  Network.dyn_peer[6]  lookupHopsSig:vector  ETV
13113	179318 9349 163 139388 20.1000000007 137.455954086446 306 0 26 1348 9490
vector 13114  Network.dyn_peer[6]  lookupStabilitySig:vector  ETV
13114	188667 10322 163 139388 20.1000000007 137.455954086446 306 -2.25 1 137.54166665673 117.3350694312
vector 13115  Network.dyn_peer[6]  lookupTimeSig:vector  ETV
13115	198989 9906 163 139388 20.1000000007 137.455954086446 306 0 2.3 150.1 103.37
vector 13131  Network.dyn_peer[12]  lookupHopsSig:vector  ETV
13131	352246 9210 173 139288 20.1000000013 137.347855353199 302 0 23 1312 8644
vector 13132  Network.dyn_peer[12]  lookupStabilitySig:vector  ETV
13132	361456 10231 173 139288 20.1000000013 137.347855353199 302 -1.875 1 138.20833328366 108.9774305688
vector 13133  Network.dyn_peer[12]  lookupTimeSig:vector  ETV
13133	371687 9772 173 139288 20.1000000013 137.347855353199 302 0 2.2 146.5 95.09
vector 13140  Network.dyn_peer[15]  lookupHopsSig:vector  ETV
13140	439043 8962 179 138741 20.1000000016 136.833064535424 294 0 21 1303 8813
vector 13141  Network.dyn_peer[15]  lookupStabilitySig:vector  ETV
13141	448005 9933 179 138741 20.1000000016 136.833064535424 294 -1.625 1 131.18055555224 106.03800153806
vector 13142  Network.dyn_peer[15]  lookupTimeSig:vector  ETV
13142	457938 9500 179 138741 20.1000000016 136.833064535424 294 0 1.9 144.6 94.58
vector 13161  Network.dyn_peer[22]  lookupHopsSig:vector  ETV
13161	637448 9669 189 139427 20.1000000023 137.499203408288 316 0 18 1345 9227
vector 13162  Network.dyn_peer[22]  lookupStabilitySig:vector  ETV
13162	647117 10689 189 139427 20.1000000023 137.499203408288 316 -1.25 1 147.875 123.921875
vector 13163  Network.dyn_peer[22]  lookupTimeSig:vector  ETV
13163	657806 10248 189 139427 20.1000000023 137.499203408288 316 0 1.7 148.9 97.35
vector 13179  Network.dyn_peer[28]  lookupHopsSig:vector  ETV
13179	809789 9243 199 139205 20.1000000029 137.253846679708 303 0 17 1268 8380
vector 13180  Network.dyn_peer[28]  lookupStabilitySig:vector  ETV
13180	819032 10268 199 139205 20.1000000029 137.253846679708 303 -1.125 1 144.70833326876 117.14756938153
vector 13181  Network.dyn_peer[28]  lookupTimeSig:vector  ETV
13181	829300 9794 199 139205 20.1000000029 137.253846679708 303 0 1.7 140.2 89.58
vector 13104  Network.dyn_peer[3]  lookupHopsSig:vector  ETV
13104	91895 9841 214 138410 20.2000000004 136.541337066168 323 0 18 1323 8033
vector 13105  Network.dyn_peer[3]  lookupStabilitySig:vector  ETV
13105	101736 10924 214 138410 20.2000000004 136.541337066168 323 -1.25 1 157.66666665673 117.8194444312
vector 13106  Network.dyn_peer[3]  lookupTimeSig:vector  ETV
13106	112660 10450 214 138410 20.2000000004 136.541337066168 323 0 1.6 150 91.66
vector 13116  Network.dyn_peer[7]  lookupHopsSig:vector  ETV
13116	208895 8558 221 139550 20.2000000008 137.679440645567 280 0 18 1204 8166
vector 13117  Network.dyn_peer[7]  lookupStabilitySig:vector  ETV
13117	217453 9475 221 139550 20.2000000008 137.679440645567 280 -1.25 1 129.63888886571 106.76003083403
vector 13118  Network.dyn_peer[7]  lookupTimeSig:vector  ETV
13118	226928 9072 221 139550 20.2000000008 137.679440645567 280 0.1 1.6 134.1 87.51
vector 13119  Network.dyn_peer[8]  lookupHopsSig:vector  ETV
13119	236000 9973 226 139683 20.2000000009 137.970250048014 327 0 20 1260 7904
vector 13120  Network.dyn_peer[8]  lookupStabilitySig:vector  ETV
13120	245973 11062 226 139683 20.2000000009 137.970250048014 327 -1.5 1 169.55555555224 135.55864197163
vector 13121  Network.dyn_peer[8]  lookupTimeSig:vector  ETV
13121	257035 10584 226 139683 20.2000000009 137.970250048014 327 0 1.9 145.3 90.25
vector 13125  Network.dyn_peer[10]  lookupHopsSig:vector  ETV
13125	296879 8867 232 138616 20.2000000011 136.731541231736 291 0 23 1328 9208
vector 13126  Network.dyn_peer[10]  lookupStabilitySig:vector  ETV
13126	305746 9830 232 138616 20.2000000011 136.731541231736 291 -1.875 1 125.11111107469 102.98572527185
vector 13127  Network.dyn_peer[10]  lookupTimeSig:vector  ETV
13127	315576 9413 232 138616 20.2000000011 136.731541231736 291 0 1.9 145.2 95.52
vector 13143  Network.dyn_peer[16]  lookupHopsSig:vector  ETV
13143	467438 8424 240 139161 20.2000000017 137.240527222018 276 0 27 1212 8856
vector 13144  Network.dyn_peer[16]  lookupStabilitySig:vector  ETV
13144	475862 9323 240 139161 20.2000000017 137.240527222018 276 -2.375 1 124.58333331347 111.42361109787
vector 13145  Network.dyn_peer[16]  lookupTimeSig:vector  ETV
13145	485185 8934 240 139161 20.2000000017 137.240527222018 276 0 2.6 134.1 93.05
vector 13146  Network.dyn_peer[17]  lookupHopsSig:vector  ETV
13146	494119 8947 245 138656 20.2000000018 136.748767994744 294 0 20 1337 9527
vector 13147  Network.dyn_peer[17]  lookupStabilitySig:vector  ETV
13147	503066 9927 245 138656 20.2000000018 136.748767994744 294 -1.5 1 127.08333331347 108.6554783877
vector 13148  Network.dyn_peer[17]  lookupTimeSig:vector  ETV
13148	512993 9486 245 138656 20.2000000018 136.748767994744 294 0 1.8 148.1 102.45
vector 13152  Network.dyn_peer[19]  lookupHopsSig:vector  ETV
13152	549649 8647 250 139281 20.200000002 137.34291510243 283 0 17 1248 8496
vector 13153  Network.dyn_peer[19]  lookupStabilitySig:vector  ETV
13153	558296 9579 250 139281 20.200000002 137.34291510243 283 -1.125 1 127.05555555224 103.80864197163
vector 13154  Network.dyn_peer[19]  lookupTimeSig:vector  ETV
13154	567875 9167 250 139281 20.200000002 137.34291510243 283 0 1.6 137.2 90.68
vector 13158  Network.dyn_peer[21]  lookupHopsSig:vector  ETV
13158	606333 9816 256 139243 20.2000000022 137.273005671498 322 0 16 1248 7536
vector 13159  Network.dyn_peer[21]  lookupStabilitySig:vector  ETV
13159	616149 10873 256 139243 20.2000000022 137.273005671498 322 -1 1 166 127.75
vector 13160  Network.dyn_peer[21]  lookupTimeSig:vector  ETV
13160	627022 10426 256 139243 20.2000000022 137.273005671498 322 0 1.6 143.3 86.45
vector 13173  Network.dyn_peer[26]  lookupHopsSig:vector  ETV
13173	754425 8293 265 139619 20.2000000027 137.837508850018 272 0 26 1313 10693
vector 13174  Network.dyn_peer[26]  lookupStabilitySig:vector  ETV
13174	762718 9144 265 139619 20.2000000027 137.837508850018 272 -2.25 1 107.875 110.828125
vector 13175  Network.dyn_peer[26]  lookupTimeSig:vector  ETV
13175	771862 8789 265 139619 20.2000000027 137.837508850018 272 0 2.1 142.2 106.4
vector 13122  Network.dyn_peer[9]  lookupHopsSig:vector  ETV
13122	267619 9227 294 138613 20.300000001 136.729705852342 303 0 24 1307 9201
vector 13123  Network.dyn_peer[9]  lookupStabilitySig:vector  ETV
13123	276846 10247 294 138613 20.300000001 136.729705852342 303 -2 1 139.68055554479 120.09394288652
vector 13124  Network.dyn_peer[9]  lookupTimeSig:vector  ETV
13124	287093 9786 294 138613 20.300000001 136.729705852342 303 0 2.2 145.1 97.57
vector 13170  Network.dyn_peer[25]  lookupHopsSig:vector  ETV
13170	724737 9376 311 138837 20.3000000026 136.866704226317 307 0 18 1325 9115
vector 13171  Network.dyn_peer[25]  lookupStabilitySig:vector  ETV
13171	734113 10355 311 138837 20.3000000026 136.866704226317 307 -1.25 1 141.375 118.171875
vector 13172  Network.dyn_peer[25]  lookupTimeSig:vector  ETV
13172	744468 9957 311 138837 20.3000000026 136.866704226317 307 0 1.5 146.7 96.63
vector 13182  Network.dyn_peer[29]  lookupHopsSig:vector  ETV
13182	839094 8905 320 138982 20.300000003 137.041043360062 292 0 17 1264 8214
vector 13183  Network.dyn_peer[29]  lookupStabilitySig:vector  ETV
13183	847999 9891 320 138982 20.300000003 137.041043360062 292 -1.125 1 134.06944443285 104.44000770023
vector 13184  Network.dyn_peer[29]  lookupTimeSig:vector  ETV
13184	857890 9458 320 138982 20.300000003 137.041043360062 292 0.1 1.5 141.3 90.81
vector 13185  Network.dyn_peer[30]  lookupHopsSig:vector  ETV
13185	867348 9238 325 139605 20.3000000031 137.783100388946 303 0 26 1333 9559
vector 13186  Network.dyn_peer[30]  lookupStabilitySig:vector  ETV
13186	876586 10196 325 139605 20.3000000031 137.783100388946 303 -2.25 1 136.45833331347 119.15798609787
vector 13187  Network.dyn_peer[30]  lookupTimeSig:vector  ETV
13187	886782 9801 325 139605 20.3000000031 137.783100388946 303 0 2.4 148 102.86
vector 13188  Network.dyn_peer[31]  lookupHopsSig:vector  ETV
13188	896583 9189 330 139120 20.3000000032 137.162056421188 301 0 26 1278 8236
vector 13189  Network.dyn_peer[31]  lookupStabilitySig:vector  ETV
13189	905772 10200 330 139120 20.3000000032 137.162056421188 301 -2.25 1 141.34722220898 110.29996140283
vector 13190  Network.dyn_peer[31]  lookupTimeSig:vector  ETV
13190	915972 9759 330 139120 20.3000000032 137.162056421188 301 0 2.2 143.8 90.98
vector 13128  Network.dyn_peer[11]  lookupHopsSig:vector  ETV
13128	324989 8607 369 138351 20.4000000012 136.456446952492 283 0 24 1227 9037
vector 13129  Network.dyn_peer[11]  lookupStabilitySig:vector  ETV
13129	333596 9540 369 138351 20.4000000012 136.456446952492 283 -2 1 129.63888888806 117.47762345532
vector 13130  Network.dyn_peer[11]  lookupTimeSig:vector  ETV
13130	343136 9110 369 138351 20.4000000012 136.456446952492 283 0 2.1 134.6 93.2
vector 13167  Network.dyn_peer[24]  lookupHopsSig:vector  ETV
13167	697601 8554 382 139465 20.4000000025 137.55810612205 281 0 25 1237 8517
vector 13168  Network.dyn_peer[24]  lookupStabilitySig:vector  ETV
13168	706155 9506 382 139465 20.4000000025 137.55810612205 281 -2.125 1 126.77777773142 105.07291664018
vector 13169  Network.dyn_peer[24]  lookupTimeSig:vector  ETV
13169	715661 9076 382 139465 20.4000000025 137.55810612205 281 0 2.1 136.8 90.72
vector 13134  Network.dyn_peer[13]  lookupHopsSig:vector  ETV
13134	381459 9301 436 138527 20.5000000014 136.638617527035 304 0 19 1365 9345
vector 13135  Network.dyn_peer[13]  lookupStabilitySig:vector  ETV
13135	390760 10277 436 138527 20.5000000014 136.638617527035 304 -1.375 1 133.41666665673 108.8194444312
vector 13136  Network.dyn_peer[13]  lookupTimeSig:vector  ETV
13136	401037 9865 436 138527 20.5000000014 136.638617527035 304 0 1.7 151.8 99.62
vector 13155  Network.dyn_peer[20]  lookupHopsSig:vector  ETV
13155	577042 9234 444 138654 20.5000000021 136.74827510854 303 0 23 1273 8275
vector 13156  Network.dyn_peer[20]  lookupStabilitySig:vector  ETV
13156	586276 10254 444 138654 20.5000000021 136.74827510854 303 -1.875 1 143.98611107469 114.15760027185
vector 13157  Network.dyn_peer[20]  lookupTimeSig:vector  ETV
13157	596530 9803 444 138654 20.5000000021 136.74827510854 303 0.1 2 142.9 90.79
vector 13101  Network.dyn_peer[2]  lookupHopsSig:vector  ETV
13101	65670 8280 841 138259 21.1000000003 136.366604226317 271 0 30 1268 9710
vector 13102  Network.dyn_peer[2]  lookupStabilitySig:vector  ETV
13102	73950 9181 841 138259 21.1000000003 136.366604226317 271 -2.75 1 112.54166665673 105.7725694312
vector 13103  Network.dyn_peer[2]  lookupTimeSig:vector  ETV
13103	83131 8764 841 138259 21.1000000003 136.366604226317 271 0 2.5 139 100.4
