file 1067020 1369933136                                         
version 2
run Stability-149-20130528-01:00:40-21385
attr configname Stability
attr datetime 20130528-01:00:40
attr experiment Stability
attr inifile omnetpp.ini
attr iterationvars $0=1e-8
attr iterationvars2 "$0=1e-8, $repetition=9"
attr measurement $0=1e-8
attr network Network
attr processid 21385
attr repetition 9
attr replication #9
attr resultdir results
attr runnumber 149
attr seedset 149
vector 14549  Network.churner  inGoingSizeSig:vector  ETV
14549	938523 128497 21 137349 20 137.10622645312 4097 0 31 125773 3882719
vector 14471  Network.dyn_peer[6]  lookupHopsSig:vector  ETV
14471	183132 8786 46 136397 20.00000000007 135.501498730358 289 0 25 1235 8167
vector 14472  Network.dyn_peer[6]  lookupStabilitySig:vector  ETV
14472	191918 9760 46 136397 20.00000000007 135.501498730358 289 -2.125 1 134.83333331347 107.9054783877
vector 14473  Network.dyn_peer[6]  lookupTimeSig:vector  ETV
14473	201678 9338 46 136397 20.00000000007 135.501498730358 289 0 2.1 139.3 89.55
vector 14486  Network.dyn_peer[11]  lookupHopsSig:vector  ETV
14486	326007 9164 65 137083 20.00000000012 136.173928354542 301 0 22 1276 8472
vector 14487  Network.dyn_peer[11]  lookupStabilitySig:vector  ETV
14487	335171 10156 65 137083 20.00000000012 136.173928354542 301 -1.75 1 141.56944443285 114.47125770023
vector 14488  Network.dyn_peer[11]  lookupTimeSig:vector  ETV
14488	345327 9718 65 137083 20.00000000012 136.173928354542 301 0 2 142.2 92.32
vector 14495  Network.dyn_peer[14]  lookupHopsSig:vector  ETV
14495	412558 9975 78 137045 20.00000000015 136.117713375624 327 0 23 1294 8580
vector 14496  Network.dyn_peer[14]  lookupStabilitySig:vector  ETV
14496	422533 11033 78 137045 20.00000000015 136.117713375624 327 -1.875 1 165.25 137.5625
vector 14497  Network.dyn_peer[14]  lookupTimeSig:vector  ETV
14497	433566 10597 78 137045 20.00000000015 136.117713375624 327 0 2.1 146.9 94.87
vector 14510  Network.dyn_peer[19]  lookupHopsSig:vector  ETV
14510	563016 9298 97 136864 20.0000000002 135.941897099487 306 0 25 1258 8032
vector 14511  Network.dyn_peer[19]  lookupStabilitySig:vector  ETV
14511	572314 10330 97 136864 20.0000000002 135.941897099487 306 -2.125 1 148.88888885826 117.12692898438
vector 14512  Network.dyn_peer[19]  lookupTimeSig:vector  ETV
14512	582644 9861 97 136864 20.0000000002 135.941897099487 306 0 2.2 140.8 87.1
vector 14513  Network.dyn_peer[20]  lookupHopsSig:vector  ETV
14513	592505 9088 104 135910 20.00000000021 135.076750214339 298 0 21 1268 8472
vector 14514  Network.dyn_peer[20]  lookupStabilitySig:vector  ETV
14514	601593 10095 104 135910 20.00000000021 135.076750214339 298 -1.625 1 139.68055549264 113.5426311125
vector 14515  Network.dyn_peer[20]  lookupTimeSig:vector  ETV
14515	611688 9644 104 135910 20.00000000021 135.076750214339 298 0 1.9 141.5 92.07
vector 14516  Network.dyn_peer[21]  lookupHopsSig:vector  ETV
14516	621332 8254 111 136942 20.00000000022 135.999552086148 271 0 18 1193 7547
vector 14517  Network.dyn_peer[21]  lookupStabilitySig:vector  ETV
14517	629586 9105 111 136942 20.00000000022 135.999552086148 271 -1.25 1 121.875 90.671875
vector 14518  Network.dyn_peer[21]  lookupTimeSig:vector  ETV
14518	638691 8751 111 136942 20.00000000022 135.999552086148 271 0 1.5 133.4 85.48
vector 14522  Network.dyn_peer[23]  lookupHopsSig:vector  ETV
14522	677507 8872 121 136496 20.00000000024 135.579583612028 291 0 19 1325 9433
vector 14523  Network.dyn_peer[23]  lookupStabilitySig:vector  ETV
14523	686379 9849 121 136496 20.00000000024 135.579583612028 291 -1.375 1 125.48611109704 107.19888116548
vector 14524  Network.dyn_peer[23]  lookupTimeSig:vector  ETV
14524	696228 9401 121 136496 20.00000000024 135.579583612028 291 0 1.8 144.1 97.85
vector 14453  Network.dyn_peer[0]  lookupHopsSig:vector  ETV
14453	6538 9399 155 136474 20.10000000001 135.57377447844 309 0 19 1289 8121
vector 14454  Network.dyn_peer[0]  lookupStabilitySig:vector  ETV
14454	15937 10405 155 136474 20.10000000001 135.57377447844 309 -1.375 1 147.875 113.640625
vector 14455  Network.dyn_peer[0]  lookupTimeSig:vector  ETV
14455	26342 9991 155 136474 20.10000000001 135.57377447844 309 0 1.6 146.3 91.75
vector 14474  Network.dyn_peer[7]  lookupHopsSig:vector  ETV
14474	211016 8888 166 137284 20.10000000008 136.666962047118 291 0 18 1279 9147
vector 14475  Network.dyn_peer[7]  lookupStabilitySig:vector  ETV
14475	219904 9853 166 137284 20.10000000008 136.666962047118 291 -1.25 1 131.23611108959 114.2629243669
vector 14476  Network.dyn_peer[7]  lookupTimeSig:vector  ETV
14476	229757 9421 166 137284 20.10000000008 136.666962047118 291 0 1.6 142.5 98.15
vector 14489  Network.dyn_peer[12]  lookupHopsSig:vector  ETV
14489	355045 9677 174 135941 20.10000000013 135.095703824665 317 0 14 1229 7355
vector 14490  Network.dyn_peer[12]  lookupStabilitySig:vector  ETV
14490	364722 10761 174 135941 20.10000000013 135.095703824665 317 -0.75 1 163.47222220898 124.81057096926
vector 14491  Network.dyn_peer[12]  lookupTimeSig:vector  ETV
14491	375483 10253 174 135941 20.10000000013 135.095703824665 317 0 1.4 139.7 83.09
vector 14501  Network.dyn_peer[16]  lookupHopsSig:vector  ETV
14501	473819 9495 182 136842 20.10000000017 135.910223285098 311 0 21 1369 9041
vector 14502  Network.dyn_peer[16]  lookupStabilitySig:vector  ETV
14502	483314 10533 182 136842 20.10000000017 135.910223285098 311 -1.625 1 139.91666665673 110.0694444312
vector 14503  Network.dyn_peer[16]  lookupTimeSig:vector  ETV
14503	493847 10080 182 136842 20.10000000017 135.910223285098 311 0 1.9 150.1 96.67
vector 14528  Network.dyn_peer[25]  lookupHopsSig:vector  ETV
14528	733544 9661 193 136949 20.10000000026 136.005995660043 317 0 15 1270 7918
vector 14529  Network.dyn_peer[25]  lookupStabilitySig:vector  ETV
14529	743205 10755 193 136949 20.10000000026 136.005995660043 317 -0.875 1 158.47222217917 123.36805552244
vector 14530  Network.dyn_peer[25]  lookupTimeSig:vector  ETV
14530	753960 10253 193 136949 20.10000000026 136.005995660043 317 0 1.4 143 86.7
vector 14537  Network.dyn_peer[28]  lookupHopsSig:vector  ETV
14537	822023 9155 200 136701 20.10000000029 135.798399923662 301 0 25 1314 9462
vector 14538  Network.dyn_peer[28]  lookupStabilitySig:vector  ETV
14538	831178 10167 200 136701 20.10000000029 135.798399923662 301 -2.125 1 136.75 120.34375
vector 14539  Network.dyn_peer[28]  lookupTimeSig:vector  ETV
14539	841345 9716 200 136701 20.10000000029 135.798399923662 301 0 2.3 148 103.38
vector 14543  Network.dyn_peer[30]  lookupHopsSig:vector  ETV
14543	879508 9310 206 135879 20.10000000031 135.064886913938 306 0 16 1241 7555
vector 14544  Network.dyn_peer[30]  lookupStabilitySig:vector  ETV
14544	888818 10316 206 135879 20.10000000031 135.064886913938 306 -1 1 150.88888888806 113.82137345532
vector 14545  Network.dyn_peer[30]  lookupTimeSig:vector  ETV
14545	899134 9881 206 135879 20.10000000031 135.064886913938 306 0 1.6 140.3 86.31
vector 14456  Network.dyn_peer[1]  lookupHopsSig:vector  ETV
14456	36333 9238 218 136717 20.20000000002 135.803114994784 303 0 26 1266 8540
vector 14457  Network.dyn_peer[1]  lookupStabilitySig:vector  ETV
14457	45571 10255 218 136717 20.20000000002 135.803114994784 303 -2.25 1 144.84722221643 120.06307869598
vector 14458  Network.dyn_peer[1]  lookupTimeSig:vector  ETV
14458	55826 9809 218 136717 20.20000000002 135.803114994784 303 0 2.2 142.5 92.89
vector 14465  Network.dyn_peer[4]  lookupHopsSig:vector  ETV
14465	123475 9678 225 135960 20.20000000005 135.108028186979 317 0 19 1327 8687
vector 14466  Network.dyn_peer[4]  lookupStabilitySig:vector  ETV
14466	133153 10677 225 135960 20.20000000005 135.108028186979 317 -1.375 1 151.125 120.984375
vector 14467  Network.dyn_peer[4]  lookupTimeSig:vector  ETV
14467	143830 10272 225 135960 20.20000000005 135.108028186979 317 0 1.6 148.8 94.66
vector 14492  Network.dyn_peer[13]  lookupHopsSig:vector  ETV
14492	385736 8468 237 136449 20.20000000014 135.561274540657 278 0 20 1241 9039
vector 14493  Network.dyn_peer[13]  lookupStabilitySig:vector  ETV
14493	394204 9376 237 136449 20.20000000014 135.561274540657 278 -1.5 1 123.1250000298 108.71701382266
vector 14494  Network.dyn_peer[13]  lookupTimeSig:vector  ETV
14494	403580 8978 237 136449 20.20000000014 135.561274540657 278 0 1.8 137.2 95.14
vector 14504  Network.dyn_peer[17]  lookupHopsSig:vector  ETV
14504	503927 9755 245 136780 20.20000000018 135.873589912045 321 0 19 1251 7605
vector 14505  Network.dyn_peer[17]  lookupStabilitySig:vector  ETV
14505	513682 10846 245 136780 20.20000000018 135.873589912045 321 -1.375 1 164.84722217917 127.20119594939
vector 14506  Network.dyn_peer[17]  lookupTimeSig:vector  ETV
14506	524528 10355 245 136780 20.20000000018 135.873589912045 321 0 1.8 142.2 87.06
vector 14519  Network.dyn_peer[22]  lookupHopsSig:vector  ETV
14519	647442 9487 253 137207 20.20000000023 136.407572894521 311 0 24 1232 7634
vector 14520  Network.dyn_peer[22]  lookupStabilitySig:vector  ETV
14520	656929 10498 253 137207 20.20000000023 136.407572894521 311 -2 1 157.11111109704 122.33950616548
vector 14521  Network.dyn_peer[22]  lookupTimeSig:vector  ETV
14521	667427 10080 253 137207 20.20000000023 136.407572894521 311 0 2.1 138.2 83.48
vector 14525  Network.dyn_peer[24]  lookupHopsSig:vector  ETV
14525	705629 8814 258 137142 20.20000000025 136.261374540657 289 0 19 1284 9264
vector 14526  Network.dyn_peer[24]  lookupStabilitySig:vector  ETV
14526	714443 9764 258 137142 20.20000000025 136.261374540657 289 -1.375 1 128.52777777612 112.79243826903
vector 14527  Network.dyn_peer[24]  lookupTimeSig:vector  ETV
14527	724207 9337 258 137142 20.20000000025 136.261374540657 289 0 1.8 143 99.94
vector 14531  Network.dyn_peer[26]  lookupHopsSig:vector  ETV
14531	764213 9499 264 137099 20.20000000027 136.183614980975 311 0 18 1322 8826
vector 14532  Network.dyn_peer[26]  lookupStabilitySig:vector  ETV
14532	773712 10549 264 137099 20.20000000027 136.183614980975 311 -1.25 1 145.80555555224 118.46489197163
vector 14533  Network.dyn_peer[26]  lookupTimeSig:vector  ETV
14533	784261 10078 264 137099 20.20000000027 136.183614980975 311 0 1.6 147.8 96.82
vector 14483  Network.dyn_peer[10]  lookupHopsSig:vector  ETV
14483	298417 8697 292 137066 20.30000000011 136.164313756674 285 0 28 1180 7454
vector 14484  Network.dyn_peer[10]  lookupStabilitySig:vector  ETV
14484	307114 9658 292 137066 20.30000000011 136.164313756674 285 -2.5 1 137.6249999851 106.54494597919
vector 14485  Network.dyn_peer[10]  lookupTimeSig:vector  ETV
14485	316772 9235 292 137066 20.30000000011 136.164313756674 285 0 2.4 132.1 80.63
vector 14498  Network.dyn_peer[15]  lookupHopsSig:vector  ETV
14498	444163 9360 300 136309 20.30000000016 135.402433206089 308 0 17 1236 7700
vector 14499  Network.dyn_peer[15]  lookupStabilitySig:vector  ETV
14499	453523 10366 300 136309 20.30000000016 135.402433206089 308 -1.125 1 153.54166665673 119.3663194312
vector 14500  Network.dyn_peer[15]  lookupTimeSig:vector  ETV
14500	463889 9930 300 136309 20.30000000016 135.402433206089 308 0 1.5 138.2 85.62
vector 14534  Network.dyn_peer[27]  lookupHopsSig:vector  ETV
14534	794339 8739 314 137251 20.30000000028 136.566880501692 287 0 17 1196 7644
vector 14535  Network.dyn_peer[27]  lookupStabilitySig:vector  ETV
14535	803078 9670 314 137251 20.30000000028 136.566880501692 287 -1.125 1 137.55555555224 107.49614197163
vector 14536  Network.dyn_peer[27]  lookupTimeSig:vector  ETV
14536	812748 9275 314 137251 20.30000000028 136.566880501692 287 0 1.6 133.6 82.74
vector 14540  Network.dyn_peer[29]  lookupHopsSig:vector  ETV
14540	851061 8971 320 136783 20.3000000003 135.873928354542 295 0 19 1274 8496
vector 14541  Network.dyn_peer[29]  lookupStabilitySig:vector  ETV
14541	860032 9963 320 136783 20.3000000003 135.873928354542 295 -1.375 1 135.90277772397 109.2243441461
vector 14542  Network.dyn_peer[29]  lookupTimeSig:vector  ETV
14542	869995 9513 320 136783 20.3000000003 135.873928354542 295 0 1.8 141.4 92.22
vector 14459  Network.dyn_peer[2]  lookupHopsSig:vector  ETV
14459	65635 9179 338 136811 20.40000000003 135.883614980975 301 0 19 1276 8584
vector 14460  Network.dyn_peer[2]  lookupStabilitySig:vector  ETV
14460	74814 10165 338 136811 20.40000000003 135.883614980975 301 -1.375 1 141.54166665673 116.1788194312
vector 14461  Network.dyn_peer[2]  lookupTimeSig:vector  ETV
14461	84979 9732 338 136811 20.40000000003 135.883614980975 301 0 1.8 141 92.26
vector 14462  Network.dyn_peer[3]  lookupHopsSig:vector  ETV
14462	94711 9063 343 136885 20.40000000004 135.961374540657 298 0 17 1248 8268
vector 14463  Network.dyn_peer[3]  lookupStabilitySig:vector  ETV
14463	103774 10085 343 136885 20.40000000004 135.961374540657 298 -1.125 1 142.09722221643 115.31307869598
vector 14464  Network.dyn_peer[3]  lookupTimeSig:vector  ETV
14464	113859 9616 343 136885 20.40000000004 135.961374540657 298 0 1.7 139.8 90.8
vector 14468  Network.dyn_peer[5]  lookupHopsSig:vector  ETV
14468	154102 9167 349 137315 20.40000000006 136.819546703255 301 0 18 1252 8154
vector 14469  Network.dyn_peer[5]  lookupStabilitySig:vector  ETV
14469	163269 10143 349 137315 20.40000000006 136.819546703255 301 -1.25 1 144.5 115.40625
vector 14470  Network.dyn_peer[5]  lookupTimeSig:vector  ETV
14470	173412 9720 349 137315 20.40000000006 136.819546703255 301 0 1.6 138.7 87.17
vector 14480  Network.dyn_peer[9]  lookupHopsSig:vector  ETV
14480	270079 8942 357 136126 20.4000000001 135.264986913938 293 0 19 1284 8936
vector 14481  Network.dyn_peer[9]  lookupStabilitySig:vector  ETV
14481	279021 9905 357 136126 20.4000000001 135.264986913938 293 -1.375 1 132.5 111.625
vector 14482  Network.dyn_peer[9]  lookupTimeSig:vector  ETV
14482	288926 9491 357 136126 20.4000000001 135.264986913938 293 0 1.8 141.9 94.15
vector 14507  Network.dyn_peer[18]  lookupHopsSig:vector  ETV
14507	534883 8885 369 136276 20.40000000019 135.397224932972 292 0 24 1276 8804
vector 14508  Network.dyn_peer[18]  lookupStabilitySig:vector  ETV
14508	543768 9814 369 136276 20.40000000019 135.397224932972 292 -2 1 132.51388888806 110.58699845532
vector 14509  Network.dyn_peer[18]  lookupTimeSig:vector  ETV
14509	553582 9434 369 136276 20.40000000019 135.397224932972 292 0 1.9 140.2 91.58
vector 14546  Network.dyn_peer[31]  lookupHopsSig:vector  ETV
14546	909015 9299 383 137347 20.40000000032 137.105989132573 307 0 20 1325 8737
vector 14547  Network.dyn_peer[31]  lookupStabilitySig:vector  ETV
14547	918314 10335 383 137347 20.40000000032 137.105989132573 307 -1.5 1 141.375 112.265625
vector 14548  Network.dyn_peer[31]  lookupTimeSig:vector  ETV
14548	928649 9874 383 137347 20.40000000032 137.105989132573 307 0 1.9 147.5 94.59
vector 14477  Network.dyn_peer[8]  lookupHopsSig:vector  ETV
14477	239178 9740 410 137238 20.50000000009 136.499179442257 320 0 25 1296 8614
vector 14478  Network.dyn_peer[8]  lookupStabilitySig:vector  ETV
14478	248918 10823 410 137238 20.50000000009 136.499179442257 320 -2.125 1 158.11111108959 130.6847993669
vector 14479  Network.dyn_peer[8]  lookupTimeSig:vector  ETV
14479	259741 10338 410 137238 20.50000000009 136.499179442257 320 0 2.5 147.1 96.21
