version 2
run Stability-103-20130528-00:57:13-21385
attr configname Stability
attr datetime 20130528-00:57:13
attr experiment Stability
attr inifile omnetpp.ini
attr iterationvars $0=1e-4
attr iterationvars2 "$0=1e-4, $repetition=3"
attr measurement $0=1e-4
attr network Network
attr processid 21385
attr repetition 3
attr replication #3
attr resultdir results
attr runnumber 103
attr seedset 103

vector 10087  Network.churner  inGoingSizeSig:vector  ETV
vector 9994  Network.dyn_peer[1]  lookupHopsSig:vector  ETV
vector 9995  Network.dyn_peer[1]  lookupStabilitySig:vector  ETV
vector 9996  Network.dyn_peer[1]  lookupTimeSig:vector  ETV
vector 10027  Network.dyn_peer[12]  lookupHopsSig:vector  ETV
vector 10028  Network.dyn_peer[12]  lookupStabilitySig:vector  ETV
vector 10029  Network.dyn_peer[12]  lookupTimeSig:vector  ETV
vector 10030  Network.dyn_peer[13]  lookupHopsSig:vector  ETV
vector 10031  Network.dyn_peer[13]  lookupStabilitySig:vector  ETV
vector 10032  Network.dyn_peer[13]  lookupTimeSig:vector  ETV
vector 10057  Network.dyn_peer[22]  lookupHopsSig:vector  ETV
vector 10058  Network.dyn_peer[22]  lookupStabilitySig:vector  ETV
vector 10059  Network.dyn_peer[22]  lookupTimeSig:vector  ETV
vector 9991  Network.dyn_peer[0]  lookupHopsSig:vector  ETV
vector 9992  Network.dyn_peer[0]  lookupStabilitySig:vector  ETV
vector 9993  Network.dyn_peer[0]  lookupTimeSig:vector  ETV
vector 10003  Network.dyn_peer[4]  lookupHopsSig:vector  ETV
vector 10004  Network.dyn_peer[4]  lookupStabilitySig:vector  ETV
vector 10005  Network.dyn_peer[4]  lookupTimeSig:vector  ETV
vector 10006  Network.dyn_peer[5]  lookupHopsSig:vector  ETV
vector 10007  Network.dyn_peer[5]  lookupStabilitySig:vector  ETV
vector 10008  Network.dyn_peer[5]  lookupTimeSig:vector  ETV
vector 10015  Network.dyn_peer[8]  lookupHopsSig:vector  ETV
vector 10016  Network.dyn_peer[8]  lookupStabilitySig:vector  ETV
vector 10017  Network.dyn_peer[8]  lookupTimeSig:vector  ETV
vector 10024  Network.dyn_peer[11]  lookupHopsSig:vector  ETV
vector 10025  Network.dyn_peer[11]  lookupStabilitySig:vector  ETV
vector 10026  Network.dyn_peer[11]  lookupTimeSig:vector  ETV
vector 10033  Network.dyn_peer[14]  lookupHopsSig:vector  ETV
vector 10034  Network.dyn_peer[14]  lookupStabilitySig:vector  ETV
vector 10035  Network.dyn_peer[14]  lookupTimeSig:vector  ETV
vector 10045  Network.dyn_peer[18]  lookupHopsSig:vector  ETV
vector 10046  Network.dyn_peer[18]  lookupStabilitySig:vector  ETV
vector 10047  Network.dyn_peer[18]  lookupTimeSig:vector  ETV
vector 10048  Network.dyn_peer[19]  lookupHopsSig:vector  ETV
vector 10049  Network.dyn_peer[19]  lookupStabilitySig:vector  ETV
vector 10050  Network.dyn_peer[19]  lookupTimeSig:vector  ETV
vector 10063  Network.dyn_peer[24]  lookupHopsSig:vector  ETV
vector 10064  Network.dyn_peer[24]  lookupStabilitySig:vector  ETV
vector 10065  Network.dyn_peer[24]  lookupTimeSig:vector  ETV
vector 10081  Network.dyn_peer[30]  lookupHopsSig:vector  ETV
vector 10082  Network.dyn_peer[30]  lookupStabilitySig:vector  ETV
vector 10083  Network.dyn_peer[30]  lookupTimeSig:vector  ETV
vector 10000  Network.dyn_peer[3]  lookupHopsSig:vector  ETV
vector 10001  Network.dyn_peer[3]  lookupStabilitySig:vector  ETV
vector 10002  Network.dyn_peer[3]  lookupTimeSig:vector  ETV
vector 10012  Network.dyn_peer[7]  lookupHopsSig:vector  ETV
vector 10013  Network.dyn_peer[7]  lookupStabilitySig:vector  ETV
vector 10014  Network.dyn_peer[7]  lookupTimeSig:vector  ETV
vector 10036  Network.dyn_peer[15]  lookupHopsSig:vector  ETV
vector 10037  Network.dyn_peer[15]  lookupStabilitySig:vector  ETV
vector 10038  Network.dyn_peer[15]  lookupTimeSig:vector  ETV
vector 10051  Network.dyn_peer[20]  lookupHopsSig:vector  ETV
vector 10052  Network.dyn_peer[20]  lookupStabilitySig:vector  ETV
vector 10053  Network.dyn_peer[20]  lookupTimeSig:vector  ETV
vector 10066  Network.dyn_peer[25]  lookupHopsSig:vector  ETV
vector 10067  Network.dyn_peer[25]  lookupStabilitySig:vector  ETV
vector 10068  Network.dyn_peer[25]  lookupTimeSig:vector  ETV
vector 10069  Network.dyn_peer[26]  lookupHopsSig:vector  ETV
vector 10070  Network.dyn_peer[26]  lookupStabilitySig:vector  ETV
vector 10071  Network.dyn_peer[26]  lookupTimeSig:vector  ETV
vector 10072  Network.dyn_peer[27]  lookupHopsSig:vector  ETV
vector 10073  Network.dyn_peer[27]  lookupStabilitySig:vector  ETV
vector 10074  Network.dyn_peer[27]  lookupTimeSig:vector  ETV
vector 10084  Network.dyn_peer[31]  lookupHopsSig:vector  ETV
vector 10085  Network.dyn_peer[31]  lookupStabilitySig:vector  ETV
vector 10086  Network.dyn_peer[31]  lookupTimeSig:vector  ETV
vector 9997  Network.dyn_peer[2]  lookupHopsSig:vector  ETV
vector 9998  Network.dyn_peer[2]  lookupStabilitySig:vector  ETV
vector 9999  Network.dyn_peer[2]  lookupTimeSig:vector  ETV
vector 10021  Network.dyn_peer[10]  lookupHopsSig:vector  ETV
vector 10022  Network.dyn_peer[10]  lookupStabilitySig:vector  ETV
vector 10023  Network.dyn_peer[10]  lookupTimeSig:vector  ETV
vector 10039  Network.dyn_peer[16]  lookupHopsSig:vector  ETV
vector 10040  Network.dyn_peer[16]  lookupStabilitySig:vector  ETV
vector 10041  Network.dyn_peer[16]  lookupTimeSig:vector  ETV
vector 10054  Network.dyn_peer[21]  lookupHopsSig:vector  ETV
vector 10055  Network.dyn_peer[21]  lookupStabilitySig:vector  ETV
vector 10056  Network.dyn_peer[21]  lookupTimeSig:vector  ETV
vector 10078  Network.dyn_peer[29]  lookupHopsSig:vector  ETV
vector 10079  Network.dyn_peer[29]  lookupStabilitySig:vector  ETV
vector 10080  Network.dyn_peer[29]  lookupTimeSig:vector  ETV
vector 10009  Network.dyn_peer[6]  lookupHopsSig:vector  ETV
vector 10010  Network.dyn_peer[6]  lookupStabilitySig:vector  ETV
vector 10011  Network.dyn_peer[6]  lookupTimeSig:vector  ETV
vector 10042  Network.dyn_peer[17]  lookupHopsSig:vector  ETV
vector 10043  Network.dyn_peer[17]  lookupStabilitySig:vector  ETV
vector 10044  Network.dyn_peer[17]  lookupTimeSig:vector  ETV
vector 10018  Network.dyn_peer[9]  lookupHopsSig:vector  ETV
vector 10019  Network.dyn_peer[9]  lookupStabilitySig:vector  ETV
vector 10020  Network.dyn_peer[9]  lookupTimeSig:vector  ETV
vector 10060  Network.dyn_peer[23]  lookupHopsSig:vector  ETV
vector 10061  Network.dyn_peer[23]  lookupStabilitySig:vector  ETV
vector 10062  Network.dyn_peer[23]  lookupTimeSig:vector  ETV
vector 10075  Network.dyn_peer[28]  lookupHopsSig:vector  ETV
vector 10076  Network.dyn_peer[28]  lookupStabilitySig:vector  ETV
vector 10077  Network.dyn_peer[28]  lookupTimeSig:vector  ETV
9991	140	20.1000001	1
9991	277	20.3000001	1
9991	916	21.206899076755	8
9991	1516	21.706999176755	5
9991	1859	22.006999176755	2
9991	2655	22.708080270507	7
9991	2678	22.712919326475	2
9991	3159	23.118323070565	4
9991	4985	24.624174827247	2
9991	5239	24.818323070565	18
9991	5274	24.829803701378	1
9991	5767	25.231667108972	3
9991	5778	25.235406964118	3
9991	6612	26.037212556402	9
9991	7764	27.037212556402	10
9991	8191	27.441395237105	7
9991	8658	27.847992264289	3
9991	8952	28.051735023013	1
9991	8965	28.053028680091	1
9991	9319	28.361094757427	2
9991	9321	28.361112063084	2
9991	9418	28.442035311185	12
9991	9777	28.676268693563	3
9991	9971	28.862362219434	4
9991	9979	28.866128659233	4
9991	10110	28.966624850936	1
9991	11411	30.066624850936	10
9991	11571	30.179434389548	1
9991	11807	30.382656060184	2
9991	11999	30.581710598961	3
9991	12440	30.984311644845	3
9991	12498	30.998479463686	2
9991	13032	31.500275489011	5
9991	13891	32.300275489011	8
9991	14383	32.7069700443	3
9991	14661	32.916165697928	1
9991	14918	33.116997954501	1
9991	15495	33.516997954501	5
9991	16153	34.020737202353	5
9991	16193	34.03762217431	4
9991	16418	34.22877184321	1
9991	16761	34.533828241128	3
9991	17600	35.333828241128	7
9991	18285	35.926963574477	7
9991	18611	36.232783003095	2
9991	18673	36.292979503095	6
9991	18833	36.478706592364	5
9991	18932	36.535754011601	2
9991	19064	36.643200237683	15
9991	19066	36.64338487167	15
9991	19392	36.947857950937	3
9991	19607	37.147857950937	1
9991	20266	37.748337694499	5
9991	20624	38.049284185526	2
9991	21148	38.449384285526	5
9991	21725	38.957036547621	4
9991	22077	39.263929755824	2
9991	22265	39.446760467203	2
9991	22528	39.653664598718	2
9991	22986	40.053664598718	3
9991	23130	40.160138868164	1
9991	23541	40.460138868164	2
9991	24698	41.363782070899	8
9991	24818	41.456276130513	2
9991	25108	41.672585294684	3
9991	25193	41.76617403278	3
9991	25324	41.866813613346	1
9991	25696	42.166813613346	3
9991	25854	42.219534213692	0
9991	26125	42.419534213692	1
9991	27078	43.129064157318	7
9991	27315	43.335686494125	1
9991	27351	43.381210121117	4
9991	27581	43.544504078304	2
9991	27841	43.747713792751	1
9991	28477	44.149636320873	3
9991	29372	44.854887872463	7
9991	29642	45.054887872463	2
9991	30502	45.858847986926	7
9991	30507	45.873423731573	7
9991	30751	46.074024637924	3
9991	31154	46.474024637924	3
9991	31408	46.681720645821	1
9991	31889	47.060962516111	2
9991	33032	47.970700682176	10
9991	33486	48.291476768844	1
9991	33592	48.370700682176	3
9991	34477	49.170800782176	8
9991	35087	49.770800782176	6
9991	35710	50.379720982375	5
9991	36357	50.881795588693	4
9991	36360	50.883512041844	4
9991	36824	51.284885235788	3
9991	38364	52.684985335788	16
9991	38984	53.284985335788	5
9991	39495	53.714227579209	5
9991	39790	53.951883873155	4
9991	39870	54.015733270245	2
9991	40397	54.425127313818	4
9991	41024	55.027416277012	5
9991	41029	55.030091831519	2
9991	41217	55.212789234475	5
9991	41404	55.386279897535	3
9991	41668	55.592108804765	2
9991	42171	55.992108804765	3
9991	42543	56.293872810033	2
9991	42616	56.324041511032	4
9991	43270	56.825857089458	5
9991	44016	57.425857089458	5
9991	44646	57.937765550071	4
9991	44862	58.140159778012	1
9991	46090	59.150197139934	10
9991	46618	59.650197139934	4
9991	47044	60.052354877998	3
9991	47291	60.262481928274	3
9991	47521	60.466206856895	1
9991	48094	60.955856803652	8
9991	48123	60.968171600302	4
9991	48381	61.171306581848	2
9991	48673	61.371306581848	1
9991	49539	62.064493517548	5
9991	49664	62.173564255749	9
9991	49687	62.191110149858	9
9991	50880	63.200086999051	10
9991	51414	63.600086999051	4
9991	51803	63.906973300866	2
9991	52461	64.412390271907	4
9991	52540	64.485249971651	6
9991	53053	64.888551739156	4
9991	54411	66.082599204799	9
9991	55096	66.682599204799	5
9991	55605	67.183001507825	4
9991	56094	67.568564077383	2
9991	56103	67.584408288469	4
9991	56119	67.59872671951	2
9991	56409	67.875817759712	2
9991	56415	67.886631072949	2
9991	56426	67.902360759963	3
9991	56566	68.006226162282	1
9991	57019	68.406226162282	4
9991	57435	68.771107695597	1
9991	58065	69.318970594207	9
9991	58241	69.466774529639	5
9991	58360	69.571358499741	8
9991	58377	69.571851122024	0
9991	58904	69.971851122024	3
9991	59157	70.17625243807	1
9991	59975	70.881406484968	6
9991	60002	70.898696570429	6
9991	60885	71.611184329835	5
9991	61665	72.351524696695	3
9991	62542	73.151624796695	8
9991	62843	73.451624796695	2
9991	63098	73.651899487738	1
9991	63251	73.756335488203	1
9991	63407	73.863547046948	1
9991	64019	74.363547046948	5
9991	64669	74.871227619022	4
9991	64929	75.059531635478	5
9991	64973	75.079909849327	5
9991	65246	75.277902416875	4
9991	66021	75.978870363599	8
9991	66261	76.178870363599	1
9991	67027	76.795595297	5
9991	67256	76.982822996374	1
9991	67502	77.182822996374	1
9991	67946	77.587255852819	3
9991	68601	78.191562767401	5
9991	68680	78.263482017862	8
9991	69393	78.863582117862	6
9991	69652	79.169008506133	2
9991	70019	79.478411850076	2
9991	70247	79.686757701026	1
9991	70907	80.294883125326	6
9991	71183	80.594883125326	2
9991	72916	82.017162072198	10
9991	73522	82.517162072198	5
9991	73820	82.725459570752	2
9991	74083	82.930046210791	1
9991	74583	83.284994069084	5
9991	74963	83.588222937746	2
9991	74968	83.590979533842	3
9991	75250	83.791443630387	2
9991	76009	84.391443630387	5
9991	76868	85.096972416901	6
9991	77539	85.601188883363	4
9991	77828	85.877324397673	3
9991	78624	86.477424497673	7
9991	78871	86.677424497673	2
9991	79093	86.885551047777	1
9991	79553	87.393486793965	4
9991	80007	87.799470292636	4
9991	81030	88.608530714372	8
9991	81657	89.108530714372	4
9991	81927	89.313625334219	3
9991	82599	89.913725434219	6
9991	83044	90.313725434219	3
9991	84438	91.519824920868	13
9991	84800	91.785258078009	1
9991	84959	91.92091944997	4
9991	85306	92.186440065553	3
9991	85547	92.392233482764	2
9991	85809	92.592233482764	2
9991	86301	92.993922388841	4
9991	86537	93.226466628351	5
9991	86833	93.534131161552	2
9991	87390	94.034231261552	5
9991	87916	94.534231261552	4
9991	88092	94.739166683325	1
9991	88311	94.940900249917	1
9991	88767	95.344626010684	3
9991	89048	95.646578387762	2
9991	89618	96.255364006612	6
9991	90393	96.95717964059	6
9991	91091	97.558954202691	5
9991	91675	98.059486830343	4
9991	91834	98.198096974982	3
9991	92267	98.563622742322	4
9991	92304	98.605392565425	1
9991	92313	98.613175061133	4
9991	92609	98.818105181324	2
9991	93024	99.218105181324	3
9991	93130	99.317348393778	2
9991	94167	100.163047098015	6
9991	95281	101.263047098015	10
9991	95787	101.667688019987	5
9991	96602	102.18485496313	4
9991	97511	102.930980308984	6
9991	98012	103.390552135554	1
9991	98392	103.790652235554	4
9991	99054	104.390652235554	5
9991	99582	104.795546171351	4
9991	99900	105.012224587294	2
9991	100363	105.414982541761	9
9991	100370	105.421863167857	3
9991	101141	106.123124861905	7
9991	101573	106.523124861905	3
9991	101825	106.826902297063	2
9991	102054	107.037564057067	1
9991	103134	108.042869927974	10
9991	103480	108.342869927974	2
9991	104228	109.047044201914	6
9991	105131	109.873501148389	11
9991	105375	110.08184859551	1
9991	105927	110.490293274257	4
9991	106874	111.190293274257	7
9991	107422	111.599785235678	3
9991	108064	112.16113507376	7
9991	108225	112.301805793713	7
9991	108269	112.36113517376	1
9991	109285	113.263592104106	10
9991	109727	113.663592104106	3
9991	110985	114.68705526048	9
9991	111076	114.767655878434	12
9991	111433	115.077009457108	3
9991	112034	115.577009457108	4
9991	112515	115.982443242712	4
9991	113026	116.382443242712	4
9991	113590	116.788182037005	4
9991	114267	117.288282137005	5
9991	115074	117.888282137005	6
9991	115379	118.088382237005	2
9991	115777	118.406946032309	1
9991	115996	118.588382237005	4
9991	116113	118.709495353459	2
9991	116351	118.917519731437	1
9991	116605	119.123761514641	1
9991	117309	119.723861614641	6
9991	118092	120.323861614641	5
9991	118903	120.964871962653	3
9991	119587	121.464871962653	4
9991	120051	121.868459934322	3
9991	120409	122.168560034322	3
9991	120972	122.668560034322	4
9991	121369	122.97698610897	3
9991	121651	123.183206112228	2
9991	122035	123.483206112228	2
9991	122441	123.788007736933	3
9991	122704	123.988007736933	2
9991	123055	124.292158682277	2
9991	123207	124.466326747642	2
9991	124222	125.277675084842	7
9991	125155	125.977675084842	6
9991	125221	125.99698662028	5
9991	125351	126.101374159282	1
9991	125761	126.401374159282	2
9991	126270	126.80685673857	4
9991	126419	126.906227348237	3
9991	126867	127.306327448237	4
9991	127158	127.606327448237	3
9991	127773	128.113527266242	4
9991	127802	128.141908551967	3
9991	128301	128.546080534117	4
9991	129341	129.346080534117	7
9991	129623	129.550502592603	1
9991	129672	129.608273960492	9
9991	130087	129.914453738675	3
9991	131110	130.714453738675	8
9991	131554	131.115533162912	4
9991	131650	131.154944786646	3
9991	131851	131.321370648895	1
9991	131961	131.360633729808	1
9991	132877	132.060733829808	8
9991	133678	132.760733829808	9
9991	134140	133.16958046917	4
9991	134419	133.37462880559	5
9991	134784	133.676061863185	4
9991	135127	133.982165663922	2
9991	135666	134.481787719188	10
9991	136038	134.79155066848	7
9991	136235	134.994381692527	1
9991	136524	135.283696733679	7
9991	136627	135.398869906087	3
9991	136635	135.409300325307	7
9991	136650	135.42489960358	3
9992	140	20.1000001	0.875
9992	277	20.3000001	0.875
9992	916	21.206899076755	0
9992	1516	21.706999176755	0.375
9992	1859	22.006999176755	0.75
9992	2655	22.708080270507	0.125
9992	2678	22.712919326475	0.75
9992	3159	23.118323070565	0.5
9992	4985	24.624174827247	0.75
9992	5239	24.818323070565	-1.25
9992	5274	24.829803701378	0.875
9992	5767	25.231667108972	0.625
9992	5778	25.235406964118	0.625
9992	6612	26.037212556402	-0.125
9992	7764	27.037212556402	-0.25
9992	8191	27.441395237105	0.125
9992	8658	27.847992264289	0.625
9992	8952	28.051735023013	0.875
9992	8965	28.053028680091	0.875
9992	9319	28.361094757427	0.75
9992	9321	28.361112063084	0.75
9992	9418	28.442035311185	-0.5
9992	9777	28.676268693563	0.625
9992	9971	28.862362219434	0.5
9992	9979	28.866128659233	0.5
9992	10110	28.966624850936	0.875
9992	11411	30.066624850936	-0.25
9992	11571	30.179434389548	0.875
9992	11807	30.382656060184	0.75
9992	11999	30.581710598961	0.625
9992	12440	30.984311644845	0.625
9992	12498	30.998479463686	0.75
9992	13032	31.500275489011	0.375
9992	13891	32.300275489011	0
9992	14383	32.7069700443	0.625
9992	14661	32.916165697928	0.875
9992	14918	33.116997954501	0.875
9992	15495	33.516997954501	0.375
9992	16153	34.020737202353	0.375
9992	16193	34.03762217431	0.5
9992	16418	34.22877184321	0.875
9992	16761	34.533828241128	0.625
9992	17600	35.333828241128	0.125
9992	18285	35.926963574477	0.125
9992	18611	36.232783003095	0.75
9992	18673	36.292979503095	0.25
9992	18833	36.478706592364	0.375
9992	18932	36.535754011601	0.75
9992	19064	36.643200237683	-0.875
9992	19066	36.64338487167	-0.875
9992	19392	36.947857950937	0.625
9992	19607	37.147857950937	0.875
9992	20266	37.748337694499	0.375
9992	20624	38.049284185526	0.75
9992	21148	38.449384285526	0.375
9992	21725	38.957036547621	0.5
9992	22077	39.263929755824	0.75
9992	22265	39.446760467203	0.75
9992	22528	39.653664598718	0.75
9992	22986	40.053664598718	0.625
9992	23130	40.160138868164	0.875
9992	23541	40.460138868164	0.75
9992	24698	41.363782070899	0
9992	24818	41.456276130513	0.75
9992	25108	41.672585294684	0.625
9992	25193	41.76617403278	0.625
9992	25324	41.866813613346	0.875
9992	25696	42.166813613346	0.625
9992	25854	42.219534213692	1
9992	26125	42.419534213692	0.875
9992	27078	43.129064157318	0.125
9992	27315	43.335686494125	0.875
9992	27351	43.381210121117	0.5
9992	27581	43.544504078304	0.75
9992	27841	43.747713792751	0.875
9992	28477	44.149636320873	0.625
9992	29372	44.854887872463	0.125
9992	29642	45.054887872463	0.75
9992	30502	45.858847986926	0.125
9992	30507	45.873423731573	0.125
9992	30751	46.074024637924	0.625
9992	31154	46.474024637924	0.625
9992	31408	46.681720645821	0.875
9992	31889	47.060962516111	0.75
9992	33032	47.970700682176	-0.25
9992	33486	48.291476768844	0.875
9992	33592	48.370700682176	0.625
9992	34477	49.170800782176	0
9992	35087	49.770800782176	0.25
9992	35710	50.379720982375	0.375
9992	36357	50.881795588693	0.5
9992	36360	50.883512041844	0.5
9992	36824	51.284885235788	0.625
9992	38364	52.684985335788	-1
9992	38984	53.284985335788	0.375
9992	39495	53.714227579209	0.375
9992	39790	53.951883873155	0.5
9992	39870	54.015733270245	0.75
9992	40397	54.425127313818	0.5
9992	41024	55.027416277012	0.375
9992	41029	55.030091831519	0.75
9992	41217	55.212789234475	0.375
9992	41404	55.386279897535	0.625
9992	41668	55.592108804765	0.75
9992	42171	55.992108804765	0.625
9992	42543	56.293872810033	0.75
9992	42616	56.324041511032	0.5
9992	43270	56.825857089458	0.375
9992	44016	57.425857089458	0.375
9992	44646	57.937765550071	0.5
9992	44862	58.140159778012	0.875
9992	46090	59.150197139934	-0.25
9992	46618	59.650197139934	0.5
9992	47044	60.052354877998	0.625
9992	47291	60.262481928274	0.625
9992	47521	60.466206856895	0.875
9992	48094	60.955856803652	0
9992	48123	60.968171600302	0.5
9992	48381	61.171306581848	0.75
9992	48673	61.371306581848	0.875
9992	49539	62.064493517548	0.375
9992	49664	62.173564255749	-0.125
9992	49687	62.191110149858	-0.125
9992	50880	63.200086999051	-0.25
9992	51414	63.600086999051	0.5
9992	51803	63.906973300866	0.75
9992	52461	64.412390271907	0.5
9992	52540	64.485249971651	0.25
9992	53053	64.888551739156	0.5
9992	54411	66.082599204799	-0.125
9992	55096	66.682599204799	0.375
9992	55605	67.183001507825	0.5
9992	56094	67.568564077383	0.75
9992	56103	67.584408288469	0.5
9992	56119	67.59872671951	0.75
9992	56409	67.875817759712	0.75
9992	56415	67.886631072949	0.75
9992	56426	67.902360759963	0.625
9992	56566	68.006226162282	0.875
9992	57019	68.406226162282	0.5
9992	57435	68.771107695597	0.875
9992	58065	69.318970594207	-0.125
9992	58241	69.466774529639	0.375
9992	58360	69.571358499741	0
9992	58377	69.571851122024	1
9992	58904	69.971851122024	0.625
9992	59157	70.17625243807	0.875
9992	59975	70.881406484968	0.25
9992	60002	70.898696570429	0.25
9992	60885	71.611184329835	0.375
9992	61665	72.351524696695	0.625
9992	62542	73.151624796695	0
9992	62843	73.451624796695	0.75
9992	63098	73.651899487738	0.875
9992	63251	73.756335488203	0.875
9992	63407	73.863547046948	0.875
9992	64019	74.363547046948	0.375
9992	64669	74.871227619022	0.5
9992	64929	75.059531635478	0.375
9992	64973	75.079909849327	0.375
9992	65246	75.277902416875	0.5
9992	66021	75.978870363599	0
9992	66261	76.178870363599	0.875
9992	67027	76.795595297	0.375
9992	67256	76.982822996374	0.875
9992	67502	77.182822996374	0.875
9992	67946	77.587255852819	0.625
9992	68601	78.191562767401	0.375
9992	68680	78.263482017862	0
9992	69393	78.863582117862	0.25
9992	69652	79.169008506133	0.75
9992	70019	79.478411850076	0.75
9992	70247	79.686757701026	0.875
9992	70907	80.294883125326	0.25
9992	71183	80.594883125326	0.75
9992	72916	82.017162072198	-0.25
9992	73522	82.517162072198	0.375
9992	73820	82.725459570752	0.75
9992	74083	82.930046210791	0.875
9992	74583	83.284994069084	0.375
9992	74963	83.588222937746	0.75
9992	74968	83.590979533842	0.625
9992	75250	83.791443630387	0.75
9992	76009	84.391443630387	0.375
9992	76868	85.096972416901	0.25
9992	77539	85.601188883363	0.5
9992	77828	85.877324397673	0.625
9992	78624	86.477424497673	0.125
9992	78871	86.677424497673	0.75
9992	79093	86.885551047777	0.875
9992	79553	87.393486793965	0.5
9992	80007	87.799470292636	0.5
9992	81030	88.608530714372	0
9992	81657	89.108530714372	0.5
9992	81927	89.313625334219	0.625
9992	82599	89.913725434219	0.25
9992	83044	90.313725434219	0.625
9992	84438	91.519824920868	-0.625
9992	84800	91.785258078009	0.875
9992	84959	91.92091944997	0.5
9992	85306	92.186440065553	0.625
9992	85547	92.392233482764	0.75
9992	85809	92.592233482764	0.75
9992	86301	92.993922388841	0.5
9992	86537	93.226466628351	0.375
9992	86833	93.534131161552	0.75
9992	87390	94.034231261552	0.375
9992	87916	94.534231261552	0.5
9992	88092	94.739166683325	0.875
9992	88311	94.940900249917	0.875
9992	88767	95.344626010684	0.625
9992	89048	95.646578387762	0.75
9992	89618	96.255364006612	0.25
9992	90393	96.95717964059	0.25
9992	91091	97.558954202691	0.375
9992	91675	98.059486830343	0.5
9992	91834	98.198096974982	0.625
9992	92267	98.563622742322	0.5
9992	92304	98.605392565425	0.875
9992	92313	98.613175061133	0.5
9992	92609	98.818105181324	0.75
9992	93024	99.218105181324	0.625
9992	93130	99.317348393778	0.75
9992	94167	100.163047098015	0.25
9992	95281	101.263047098015	-0.25
9992	95787	101.667688019987	0.375
9992	96602	102.18485496313	0.5
9992	97511	102.930980308984	0.25
9992	98012	103.390552135554	0.875
9992	98392	103.790652235554	0.5
9992	99054	104.390652235554	0.375
9992	99582	104.795546171351	0.5
9992	99900	105.012224587294	0.75
9992	100363	105.414982541761	-0.125
9992	100370	105.421863167857	0.625
9992	101141	106.123124861905	0.125
9992	101573	106.523124861905	0.625
9992	101825	106.826902297063	0.75
9992	102054	107.037564057067	0.875
9992	103134	108.042869927974	-0.25
9992	103480	108.342869927974	0.75
9992	104228	109.047044201914	0.25
9992	105131	109.873501148389	-0.375
9992	105375	110.08184859551	0.875
9992	105927	110.490293274257	0.5
9992	106874	111.190293274257	0.125
9992	107422	111.599785235678	0.625
9992	108064	112.16113507376	0.22222220897675
9992	108225	112.301805793713	0.125
9992	108269	112.36113517376	0.875
9992	109285	113.263592104106	-0.25
9992	109727	113.663592104106	0.625
9992	110985	114.68705526048	-0.125
9992	111076	114.767655878434	-0.5
9992	111433	115.077009457108	0.625
9992	112034	115.577009457108	0.5
9992	112515	115.982443242712	0.5
9992	113026	116.382443242712	0.5
9992	113590	116.788182037005	0.5
9992	114267	117.288282137005	0.375
9992	115074	117.888282137005	0.25
9992	115379	118.088382237005	0.75
9992	115777	118.406946032309	0.875
9992	115996	118.588382237005	0.5
9992	116113	118.709495353459	0.75
9992	116351	118.917519731437	0.875
9992	116605	119.123761514641	0.875
9992	117309	119.723861614641	0.25
9992	118092	120.323861614641	0.375
9992	118903	120.964871962653	0.625
9992	119587	121.464871962653	0.5
9992	120051	121.868459934322	0.625
9992	120409	122.168560034322	0.625
9992	120972	122.668560034322	0.5
9992	121369	122.97698610897	0.625
9992	121651	123.183206112228	0.75
9992	122035	123.483206112228	0.75
9992	122441	123.788007736933	0.66666665673256
9992	122704	123.988007736933	0.75
9992	123055	124.292158682277	0.75
9992	123207	124.466326747642	0.75
9992	124222	125.277675084842	0.125
9992	125155	125.977675084842	0.25
9992	125221	125.99698662028	0.375
9992	125351	126.101374159282	0.875
9992	125761	126.401374159282	0.75
9992	126270	126.80685673857	0.5
9992	126419	126.906227348237	0.625
9992	126867	127.306327448237	0.5
9992	127158	127.606327448237	0.625
9992	127773	128.113527266242	0.5
9992	127802	128.141908551967	0.625
9992	128301	128.546080534117	0.5
9992	129341	129.346080534117	0.125
9992	129623	129.550502592603	0.875
9992	129672	129.608273960492	-0.125
9992	130087	129.914453738675	0.625
9992	131110	130.714453738675	0
9992	131554	131.115533162912	0.5
9992	131650	131.154944786646	0.66666665673256
9992	131851	131.321370648895	0.875
9992	131961	131.360633729808	0.875
9992	132877	132.060733829808	0
9992	133678	132.760733829808	-0.125
9992	134140	133.16958046917	0.5
9992	134419	133.37462880559	0.375
9992	134784	133.676061863185	0.5
9992	135127	133.982165663922	0.75
9992	135666	134.481787719188	-0.25
9992	136038	134.79155066848	0.125
9992	136235	134.994381692527	0.875
9992	136524	135.283696733679	0.125
9992	136627	135.398869906087	0.625
9992	136635	135.409300325307	0.125
9992	136650	135.42489960358	0.625
9993	140	20.1000001	0.1
9993	277	20.3000001	0.2
9993	916	21.206899076755	0.9
9993	1516	21.706999176755	0.5
9993	1859	22.006999176755	0.3
9993	2655	22.708080270507	0.7
9993	2678	22.712919326475	0.3
9993	3159	23.118323070565	0.4
9993	4985	24.624174827247	0.3
9993	5239	24.818323070565	1.7
9993	5274	24.829803701378	0.2
9993	5767	25.231667108972	0.4
9993	5778	25.235406964118	0.4
9993	6612	26.037212556402	0.8
9993	7764	27.037212556402	1
9993	8191	27.441395237105	0.8
9993	8658	27.847992264289	0.4
9993	8952	28.051735023013	0.2
9993	8965	28.053028680091	0.2
9993	9319	28.361094757427	0.3
9993	9321	28.361112063084	0.3
9993	9418	28.442035311185	1.2
9993	9777	28.676268693563	0.4
9993	9971	28.862362219434	0.5
9993	9979	28.866128659233	0.5
9993	10110	28.966624850936	0.1
9993	11411	30.066624850936	1.1
9993	11571	30.179434389548	0.1
9993	11807	30.382656060184	0.3
9993	11999	30.581710598961	0.4
9993	12440	30.984311644845	0.4
9993	12498	30.998479463686	0.3
9993	13032	31.500275489011	0.5
9993	13891	32.300275489011	0.8
9993	14383	32.7069700443	0.4
9993	14661	32.916165697928	0.2
9993	14918	33.116997954501	0.1
9993	15495	33.516997954501	0.4
9993	16153	34.020737202353	0.5
9993	16193	34.03762217431	0.5
9993	16418	34.22877184321	0.2
9993	16761	34.533828241128	0.3
9993	17600	35.333828241128	0.8
9993	18285	35.926963574477	0.7
9993	18611	36.232783003095	0.3
9993	18673	36.292979503095	0.7
9993	18833	36.478706592364	0.6
9993	18932	36.535754011601	0.3
9993	19064	36.643200237683	1.3
9993	19066	36.64338487167	1.3
9993	19392	36.947857950937	0.3
9993	19607	37.147857950937	0.2
9993	20266	37.748337694499	0.6
9993	20624	38.049284185526	0.3
9993	21148	38.449384285526	0.4
9993	21725	38.957036547621	0.5
9993	22077	39.263929755824	0.3
9993	22265	39.446760467203	0.3
9993	22528	39.653664598718	0.2
9993	22986	40.053664598718	0.4
9993	23130	40.160138868164	0.1
9993	23541	40.460138868164	0.3
9993	24698	41.363782070899	0.9
9993	24818	41.456276130513	0.3
9993	25108	41.672585294684	0.3
9993	25193	41.76617403278	0.3
9993	25324	41.866813613346	0.1
9993	25696	42.166813613346	0.3
9993	25854	42.219534213692	0
9993	26125	42.419534213692	0.2
9993	27078	43.129064157318	0.7
9993	27315	43.335686494125	0.2
9993	27351	43.381210121117	0.5
9993	27581	43.544504078304	0.2
9993	27841	43.747713792751	0.2
9993	28477	44.149636320873	0.4
9993	29372	44.854887872463	0.7
9993	29642	45.054887872463	0.2
9993	30502	45.858847986926	0.8
9993	30507	45.873423731573	0.8
9993	30751	46.074024637924	0.2
9993	31154	46.474024637924	0.4
9993	31408	46.681720645821	0.2
9993	31889	47.060962516111	0.3
9993	33032	47.970700682176	0.9
9993	33486	48.291476768844	0.1
9993	33592	48.370700682176	0.4
9993	34477	49.170800782176	0.8
9993	35087	49.770800782176	0.6
9993	35710	50.379720982375	0.6
9993	36357	50.881795588693	0.5
9993	36360	50.883512041844	0.5
9993	36824	51.284885235788	0.4
9993	38364	52.684985335788	1.4
9993	38984	53.284985335788	0.6
9993	39495	53.714227579209	0.6
9993	39790	53.951883873155	0.5
9993	39870	54.015733270245	0.3
9993	40397	54.425127313818	0.4
9993	41024	55.027416277012	0.6
9993	41029	55.030091831519	0.3
9993	41217	55.212789234475	0.6
9993	41404	55.386279897535	0.4
9993	41668	55.592108804765	0.2
9993	42171	55.992108804765	0.4
9993	42543	56.293872810033	0.3
9993	42616	56.324041511032	0.5
9993	43270	56.825857089458	0.5
9993	44016	57.425857089458	0.6
9993	44646	57.937765550071	0.5
9993	44862	58.140159778012	0.2
9993	46090	59.150197139934	1
9993	46618	59.650197139934	0.5
9993	47044	60.052354877998	0.4
9993	47291	60.262481928274	0.4
9993	47521	60.466206856895	0.2
9993	48094	60.955856803652	0.9
9993	48123	60.968171600302	0.5
9993	48381	61.171306581848	0.2
9993	48673	61.371306581848	0.2
9993	49539	62.064493517548	0.6
9993	49664	62.173564255749	0.8
9993	49687	62.191110149858	0.8
9993	50880	63.200086999051	1
9993	51414	63.600086999051	0.4
9993	51803	63.906973300866	0.3
9993	52461	64.412390271907	0.5