file 800718 1369933137                                          
version 2
run Stability-26-20130528-00:51:48-21385
attr configname Stability
attr datetime 20130528-00:51:48
attr experiment Stability
attr inifile omnetpp.ini
attr iterationvars $0=1e4
attr iterationvars2 "$0=1e4, $repetition=6"
attr measurement $0=1e4
attr network Network
attr processid 21385
attr repetition 6
attr replication #6
attr resultdir results
attr runnumber 26
attr seedset 26
vector 2618  Network.churner  inGoingSizeSig:vector  ETV
2618	699369 101349 23 66505 20 20500.812967469479 4097 0 0 0 0
vector 2522  Network.dyn_peer[0]  lookupHopsSig:vector  ETV
2522	6435 6726 31 65519 30.1 20190.820881578521 256 0 3 341 527
vector 2523  Network.dyn_peer[0]  lookupStabilitySig:vector  ETV
2523	13161 7639 31 65519 30.1 20190.820881578521 256 0.625 1 213.375 178.984375
vector 2524  Network.dyn_peer[0]  lookupTimeSig:vector  ETV
2524	20800 7226 31 65519 30.1 20190.820881578521 256 0 0.4 53.3 12.41
vector 2525  Network.dyn_peer[1]  lookupHopsSig:vector  ETV
2525	28026 6723 70 65555 40.1 20200.851274377224 256 0 2 345 535
vector 2526  Network.dyn_peer[1]  lookupStabilitySig:vector  ETV
2526	34749 7628 70 65555 40.1 20200.851274377224 256 0.75 1 212.875 178.109375
vector 2527  Network.dyn_peer[1]  lookupTimeSig:vector  ETV
2527	42377 7223 70 65555 40.1 20200.851274377224 256 0 0.3 53.7 12.53
vector 2528  Network.dyn_peer[2]  lookupHopsSig:vector  ETV
2528	49600 6723 102 65590 50.2 20210.937581338745 256 0 3 347 551
vector 2529  Network.dyn_peer[2]  lookupStabilitySig:vector  ETV
2529	56323 7636 102 65590 50.2 20210.937581338745 256 0.625 1 212.625 177.859375
vector 2530  Network.dyn_peer[2]  lookupTimeSig:vector  ETV
2530	63959 7223 102 65590 50.2 20210.937581338745 256 0 0.3 53.9 12.57
vector 2531  Network.dyn_peer[3]  lookupHopsSig:vector  ETV
2531	71182 6738 134 65624 60.2 20220.829071863213 256 0 2 332 498
vector 2532  Network.dyn_peer[3]  lookupStabilitySig:vector  ETV
2532	77920 7651 134 65624 60.2 20220.829071863213 256 0.75 1 214.5 180.78125
vector 2533  Network.dyn_peer[3]  lookupTimeSig:vector  ETV
2533	85571 7236 134 65624 60.2 20220.829071863213 256 0 0.3 52.4 11.94
vector 2534  Network.dyn_peer[4]  lookupHopsSig:vector  ETV
2534	92807 6752 166 65667 70.1 20230.986197960229 256 0 3 345 537
vector 2535  Network.dyn_peer[4]  lookupStabilitySig:vector  ETV
2535	99559 7659 166 65667 70.1 20230.986197960229 256 0.625 1 212.875 178.140625
vector 2536  Network.dyn_peer[4]  lookupTimeSig:vector  ETV
2536	107218 7252 166 65667 70.1 20230.986197960229 256 0 0.4 53.7 12.55
vector 2537  Network.dyn_peer[5]  lookupHopsSig:vector  ETV
2537	114470 6691 195 65696 80.1 20240.814312716377 256 0 3 345 545
vector 2538  Network.dyn_peer[5]  lookupStabilitySig:vector  ETV
2538	121161 7606 195 65696 80.1 20240.814312716377 256 0.625 1 212.875 178.265625
vector 2539  Network.dyn_peer[5]  lookupTimeSig:vector  ETV
2539	128767 7191 195 65696 80.1 20240.814312716377 256 0 0.4 53.7 12.47
vector 2540  Network.dyn_peer[6]  lookupHopsSig:vector  ETV
2540	135958 6693 225 65731 90 20250.928565008894 256 0 3 322 478
vector 2541  Network.dyn_peer[6]  lookupStabilitySig:vector  ETV
2541	142651 7598 225 65731 90 20250.928565008894 256 0.625 1 215.75 182.96875
vector 2542  Network.dyn_peer[6]  lookupTimeSig:vector  ETV
2542	150249 7183 225 65731 90 20250.928565008894 256 0 0.4 51.4 11.66
vector 2543  Network.dyn_peer[7]  lookupHopsSig:vector  ETV
2543	157432 6801 257 65761 100.2 20260.81772469522 256 0 3 345 533
vector 2544  Network.dyn_peer[7]  lookupStabilitySig:vector  ETV
2544	164233 7725 257 65761 100.2 20260.81772469522 256 0.625 1 212.875 178.078125
vector 2545  Network.dyn_peer[7]  lookupTimeSig:vector  ETV
2545	171958 7307 257 65761 100.2 20260.81772469522 256 0 0.4 53.7 12.49
vector 2546  Network.dyn_peer[8]  lookupHopsSig:vector  ETV
2546	179265 6743 293 65792 110.2 20271.012875301706 256 0 3 344 532
vector 2547  Network.dyn_peer[8]  lookupStabilitySig:vector  ETV
2547	186008 7656 293 65792 110.2 20271.012875301706 256 0.625 1 213 178.3125
vector 2548  Network.dyn_peer[8]  lookupTimeSig:vector  ETV
2548	193664 7245 293 65792 110.2 20271.012875301706 256 0 0.4 53.6 12.48
vector 2549  Network.dyn_peer[9]  lookupHopsSig:vector  ETV
2549	200909 6700 324 65824 120.2 20280.82837789993 256 0 3 338 532
vector 2550  Network.dyn_peer[9]  lookupStabilitySig:vector  ETV
2550	207609 7602 324 65824 120.2 20280.82837789993 256 0.625 1 213.75 179.8125
vector 2551  Network.dyn_peer[9]  lookupTimeSig:vector  ETV
2551	215211 7192 324 65824 120.2 20280.82837789993 256 0 0.3 53 12.28
vector 2552  Network.dyn_peer[10]  lookupHopsSig:vector  ETV
2552	222403 6782 365 65853 130.3 20290.80858825626 256 0 3 330 510
vector 2553  Network.dyn_peer[10]  lookupStabilitySig:vector  ETV
2553	229185 7673 365 65853 130.3 20290.80858825626 256 0.625 1 214.75 181.46875
vector 2554  Network.dyn_peer[10]  lookupTimeSig:vector  ETV
2554	236858 7268 365 65853 130.3 20290.80858825626 256 0 0.3 52.2 12.04
vector 2555  Network.dyn_peer[11]  lookupHopsSig:vector  ETV
2555	244126 6822 397 65881 140.2 20300.715448875466 256 0 3 342 530
vector 2556  Network.dyn_peer[11]  lookupStabilitySig:vector  ETV
2556	250948 7727 397 65881 140.2 20300.715448875466 256 0.625 1 213.25 178.78125
vector 2557  Network.dyn_peer[11]  lookupTimeSig:vector  ETV
2557	258675 7320 397 65881 140.2 20300.715448875466 256 0 0.3 53.4 12.4
vector 2558  Network.dyn_peer[12]  lookupHopsSig:vector  ETV
2558	265995 6763 427 65909 150 20310.619305286142 256 0 3 330 500
vector 2559  Network.dyn_peer[12]  lookupStabilitySig:vector  ETV
2559	272758 7665 427 65909 150 20310.619305286142 256 0.625 1 214.75 181.3125
vector 2560  Network.dyn_peer[12]  lookupTimeSig:vector  ETV
2560	280423 7255 427 65909 150 20310.619305286142 256 0 0.4 52.2 11.98
vector 2561  Network.dyn_peer[13]  lookupHopsSig:vector  ETV
2561	287678 6742 468 65939 160.1 20320.81925975336 256 0 3 362 594
vector 2562  Network.dyn_peer[13]  lookupStabilitySig:vector  ETV
2562	294420 7624 468 65939 160.1 20320.81925975336 256 0.625 1 210.75 174.78125
vector 2563  Network.dyn_peer[13]  lookupTimeSig:vector  ETV
2563	302044 7238 468 65939 160.1 20320.81925975336 256 0 0.4 55.4 13.34
vector 2564  Network.dyn_peer[14]  lookupHopsSig:vector  ETV
2564	309282 6710 501 65973 170.2 20330.842622628534 256 0 3 346 548
vector 2565  Network.dyn_peer[14]  lookupStabilitySig:vector  ETV
2565	315992 7624 501 65973 170.2 20330.842622628534 256 0.625 1 212.75 178.0625
vector 2566  Network.dyn_peer[14]  lookupTimeSig:vector  ETV
2566	323616 7210 501 65973 170.2 20330.842622628534 256 0 0.4 53.8 12.52
vector 2567  Network.dyn_peer[15]  lookupHopsSig:vector  ETV
2567	330826 6769 534 66001 180.2 20340.70558294546 256 0 2 345 543
vector 2568  Network.dyn_peer[15]  lookupStabilitySig:vector  ETV
2568	337595 7654 534 66001 180.2 20340.70558294546 256 0.75 1 212.875 178.234375
vector 2569  Network.dyn_peer[15]  lookupTimeSig:vector  ETV
2569	345249 7261 534 66001 180.2 20340.70558294546 256 0 0.3 53.7 12.61
vector 2570  Network.dyn_peer[16]  lookupHopsSig:vector  ETV
2570	352510 6738 578 66030 190.2 20350.713304822122 256 0 3 341 539
vector 2571  Network.dyn_peer[16]  lookupStabilitySig:vector  ETV
2571	359248 7628 578 66030 190.2 20350.713304822122 256 0.625 1 213.375 179.171875
vector 2572  Network.dyn_peer[16]  lookupTimeSig:vector  ETV
2572	366876 7228 578 66030 190.2 20350.713304822122 256 0 0.4 53.3 12.47
vector 2573  Network.dyn_peer[17]  lookupHopsSig:vector  ETV
2573	374104 6791 613 66059 200.1 20360.621479028205 256 0 3 341 539
vector 2574  Network.dyn_peer[17]  lookupStabilitySig:vector  ETV
2574	380895 7688 613 66059 200.1 20360.621479028205 256 0.625 1 213.375 179.171875
vector 2575  Network.dyn_peer[17]  lookupTimeSig:vector  ETV
2575	388583 7283 613 66059 200.1 20360.621479028205 256 0 0.3 53.3 12.49
vector 2576  Network.dyn_peer[18]  lookupHopsSig:vector  ETV
2576	395866 6797 645 66090 210.1 20370.909516658218 256 0 3 334 506
vector 2577  Network.dyn_peer[18]  lookupStabilitySig:vector  ETV
2577	402663 7710 645 66090 210.1 20370.909516658218 256 0.625 1 214.25 180.40625
vector 2578  Network.dyn_peer[18]  lookupTimeSig:vector  ETV
2578	410373 7295 645 66090 210.1 20370.909516658218 256 0 0.4 52.6 12.06
vector 2579  Network.dyn_peer[19]  lookupHopsSig:vector  ETV
2579	417668 6660 676 66125 220.2 20380.92665320431 256 0 3 359 597
vector 2580  Network.dyn_peer[19]  lookupStabilitySig:vector  ETV
2580	424328 7571 676 66125 220.2 20380.92665320431 256 0.625 1 211.125 175.578125
vector 2581  Network.dyn_peer[19]  lookupTimeSig:vector  ETV
2581	431899 7160 676 66125 220.2 20380.92665320431 256 0 0.3 55.1 13.13
vector 2582  Network.dyn_peer[20]  lookupHopsSig:vector  ETV
2582	439059 6813 709 66157 230 20390.919122844413 256 0 3 352 562
vector 2583  Network.dyn_peer[20]  lookupStabilitySig:vector  ETV
2583	445872 7717 709 66157 230 20390.919122844413 256 0.625 1 212 176.78125
vector 2584  Network.dyn_peer[20]  lookupTimeSig:vector  ETV
2584	453589 7313 709 66157 230 20390.919122844413 256 0 0.4 54.4 12.9
vector 2585  Network.dyn_peer[21]  lookupHopsSig:vector  ETV
2585	460902 6794 738 66188 240.1 20400.815162245523 256 0 3 331 499
vector 2586  Network.dyn_peer[21]  lookupStabilitySig:vector  ETV
2586	467696 7705 738 66188 240.1 20400.815162245523 256 0.625 1 214.625 181.046875
vector 2587  Network.dyn_peer[21]  lookupTimeSig:vector  ETV
2587	475401 7290 738 66188 240.1 20400.815162245523 256 0 0.4 52.3 11.99
vector 2588  Network.dyn_peer[22]  lookupHopsSig:vector  ETV
2588	482691 6703 770 66221 250 20410.831829187684 256 0 2 336 516
vector 2589  Network.dyn_peer[22]  lookupStabilitySig:vector  ETV
2589	489394 7597 770 66221 250 20410.831829187684 256 0.75 1 214 180.0625
vector 2590  Network.dyn_peer[22]  lookupTimeSig:vector  ETV
2590	496991 7195 770 66221 250 20410.831829187684 256 0 0.3 52.8 12.32
vector 2591  Network.dyn_peer[23]  lookupHopsSig:vector  ETV
2591	504186 6733 806 66255 260.1 20421.119844398923 256 0 2 331 489
vector 2592  Network.dyn_peer[23]  lookupStabilitySig:vector  ETV
2592	510919 7662 806 66255 260.1 20421.119844398923 256 0.75 1 214.625 180.890625
vector 2593  Network.dyn_peer[23]  lookupTimeSig:vector  ETV
2593	518581 7237 806 66255 260.1 20421.119844398923 256 0 0.3 52.3 11.79
vector 2594  Network.dyn_peer[24]  lookupHopsSig:vector  ETV
2594	525818 6789 842 66285 270.1 20430.721991251859 256 0 2 329 499
vector 2595  Network.dyn_peer[24]  lookupStabilitySig:vector  ETV
2595	532607 7680 842 66285 270.1 20430.721991251859 256 0.75 1 214.875 181.546875
vector 2596  Network.dyn_peer[24]  lookupTimeSig:vector  ETV
2596	540287 7277 842 66285 270.1 20430.721991251859 256 0 0.3 52.1 12.09
vector 2597  Network.dyn_peer[25]  lookupHopsSig:vector  ETV
2597	547564 6743 873 66316 280 20440.906391838358 256 0 3 340 532
vector 2598  Network.dyn_peer[25]  lookupStabilitySig:vector  ETV
2598	554307 7651 873 66316 280 20440.906391838358 256 0.625 1 213.5 179.3125
vector 2599  Network.dyn_peer[25]  lookupTimeSig:vector  ETV
2599	561958 7239 873 66316 280 20440.906391838358 256 0 0.4 53.2 12.44
vector 2600  Network.dyn_peer[26]  lookupHopsSig:vector  ETV
2600	569197 6795 902 66346 290.1 20450.820044920198 256 0 3 346 550
vector 2601  Network.dyn_peer[26]  lookupStabilitySig:vector  ETV
2601	575992 7690 902 66346 290.1 20450.820044920198 256 0.625 1 212.75 178.09375
vector 2602  Network.dyn_peer[26]  lookupTimeSig:vector  ETV
2602	583682 7289 902 66346 290.1 20450.820044920198 256 0 0.4 53.8 12.66
vector 2603  Network.dyn_peer[27]  lookupHopsSig:vector  ETV
2603	590971 6757 933 66377 300.1 20460.830670230308 256 0 2 348 544
vector 2604  Network.dyn_peer[27]  lookupStabilitySig:vector  ETV
2604	597728 7659 933 66377 300.1 20460.830670230308 256 0.75 1 212.5 177.5
vector 2605  Network.dyn_peer[27]  lookupTimeSig:vector  ETV
2605	605387 7257 933 66377 300.1 20460.830670230308 256 0 0.3 54 12.56
vector 2606  Network.dyn_peer[28]  lookupHopsSig:vector  ETV
2606	612644 6727 965 66410 310.2 20471.017772139807 256 0 3 362 590
vector 2607  Network.dyn_peer[28]  lookupStabilitySig:vector  ETV
2607	619371 7612 965 66410 310.2 20471.017772139807 256 0.625 1 210.75 174.71875
vector 2608  Network.dyn_peer[28]  lookupTimeSig:vector  ETV
2608	626983 7225 965 66410 310.2 20471.017772139807 256 0 0.4 55.4 13.34
vector 2609  Network.dyn_peer[29]  lookupHopsSig:vector  ETV
2609	634208 6724 1000 66443 320.1 20480.923794388855 256 0 3 343 539
vector 2610  Network.dyn_peer[29]  lookupStabilitySig:vector  ETV
2610	640932 7620 1000 66443 320.1 20480.923794388855 256 0.625 1 213.125 178.671875
vector 2611  Network.dyn_peer[29]  lookupTimeSig:vector  ETV
2611	648552 7218 1000 66443 320.1 20480.923794388855 256 0 0.4 53.5 12.59
vector 2612  Network.dyn_peer[30]  lookupHopsSig:vector  ETV
2612	655770 6815 1036 66473 330.2 20490.810155154053 256 0 3 348 550
vector 2613  Network.dyn_peer[30]  lookupStabilitySig:vector  ETV
2613	662585 7737 1036 66473 330.2 20490.810155154053 256 0.625 1 212.5 177.59375
vector 2614  Network.dyn_peer[30]  lookupTimeSig:vector  ETV
2614	670322 7319 1036 66473 330.2 20490.810155154053 256 0 0.4 54 12.48
vector 2615  Network.dyn_peer[31]  lookupHopsSig:vector  ETV
2615	677641 6776 1072 66503 340.2 20500.80848280356 256 0 3 351 581
vector 2616  Network.dyn_peer[31]  lookupStabilitySig:vector  ETV
2616	684417 7682 1072 66503 340.2 20500.80848280356 256 0.625 1 212.125 177.328125
vector 2617  Network.dyn_peer[31]  lookupTimeSig:vector  ETV
2617	692099 7270 1072 66503 340.2 20500.80848280356 256 0 0.4 54.3 12.85
