version 2
run Stability-78-20130528-00:55:19-21385
attr configname Stability
attr datetime 20130528-00:55:19
attr experiment Stability
attr inifile omnetpp.ini
attr iterationvars $0=1e-1
attr iterationvars2 "$0=1e-1, $repetition=8"
attr measurement $0=1e-1
attr network Network
attr processid 21385
attr repetition 8
attr replication #8
attr resultdir results
attr runnumber 78
attr seedset 78

vector 7662  Network.churner  inGoingSizeSig:vector  ETV
vector 7584  Network.dyn_peer[6]  lookupHopsSig:vector  ETV
vector 7585  Network.dyn_peer[6]  lookupStabilitySig:vector  ETV
vector 7586  Network.dyn_peer[6]  lookupTimeSig:vector  ETV
vector 7590  Network.dyn_peer[8]  lookupHopsSig:vector  ETV
vector 7591  Network.dyn_peer[8]  lookupStabilitySig:vector  ETV
vector 7592  Network.dyn_peer[8]  lookupTimeSig:vector  ETV
vector 7596  Network.dyn_peer[10]  lookupHopsSig:vector  ETV
vector 7597  Network.dyn_peer[10]  lookupStabilitySig:vector  ETV
vector 7598  Network.dyn_peer[10]  lookupTimeSig:vector  ETV
vector 7617  Network.dyn_peer[17]  lookupHopsSig:vector  ETV
vector 7618  Network.dyn_peer[17]  lookupStabilitySig:vector  ETV
vector 7619  Network.dyn_peer[17]  lookupTimeSig:vector  ETV
vector 7569  Network.dyn_peer[1]  lookupHopsSig:vector  ETV
vector 7570  Network.dyn_peer[1]  lookupStabilitySig:vector  ETV
vector 7571  Network.dyn_peer[1]  lookupTimeSig:vector  ETV
vector 7575  Network.dyn_peer[3]  lookupHopsSig:vector  ETV
vector 7576  Network.dyn_peer[3]  lookupStabilitySig:vector  ETV
vector 7577  Network.dyn_peer[3]  lookupTimeSig:vector  ETV
vector 7581  Network.dyn_peer[5]  lookupHopsSig:vector  ETV
vector 7582  Network.dyn_peer[5]  lookupStabilitySig:vector  ETV
vector 7583  Network.dyn_peer[5]  lookupTimeSig:vector  ETV
vector 7587  Network.dyn_peer[7]  lookupHopsSig:vector  ETV
vector 7588  Network.dyn_peer[7]  lookupStabilitySig:vector  ETV
vector 7589  Network.dyn_peer[7]  lookupTimeSig:vector  ETV
vector 7620  Network.dyn_peer[18]  lookupHopsSig:vector  ETV
vector 7621  Network.dyn_peer[18]  lookupStabilitySig:vector  ETV
vector 7622  Network.dyn_peer[18]  lookupTimeSig:vector  ETV
vector 7623  Network.dyn_peer[19]  lookupHopsSig:vector  ETV
vector 7624  Network.dyn_peer[19]  lookupStabilitySig:vector  ETV
vector 7625  Network.dyn_peer[19]  lookupTimeSig:vector  ETV
vector 7638  Network.dyn_peer[24]  lookupHopsSig:vector  ETV
vector 7639  Network.dyn_peer[24]  lookupStabilitySig:vector  ETV
vector 7640  Network.dyn_peer[24]  lookupTimeSig:vector  ETV
vector 7644  Network.dyn_peer[26]  lookupHopsSig:vector  ETV
vector 7645  Network.dyn_peer[26]  lookupStabilitySig:vector  ETV
vector 7646  Network.dyn_peer[26]  lookupTimeSig:vector  ETV
vector 7650  Network.dyn_peer[28]  lookupHopsSig:vector  ETV
vector 7651  Network.dyn_peer[28]  lookupStabilitySig:vector  ETV
vector 7652  Network.dyn_peer[28]  lookupTimeSig:vector  ETV
vector 7653  Network.dyn_peer[29]  lookupHopsSig:vector  ETV
vector 7654  Network.dyn_peer[29]  lookupStabilitySig:vector  ETV
vector 7655  Network.dyn_peer[29]  lookupTimeSig:vector  ETV
vector 7599  Network.dyn_peer[11]  lookupHopsSig:vector  ETV
vector 7600  Network.dyn_peer[11]  lookupStabilitySig:vector  ETV
vector 7601  Network.dyn_peer[11]  lookupTimeSig:vector  ETV
vector 7602  Network.dyn_peer[12]  lookupHopsSig:vector  ETV
vector 7603  Network.dyn_peer[12]  lookupStabilitySig:vector  ETV
vector 7604  Network.dyn_peer[12]  lookupTimeSig:vector  ETV
vector 7605  Network.dyn_peer[13]  lookupHopsSig:vector  ETV
vector 7606  Network.dyn_peer[13]  lookupStabilitySig:vector  ETV
vector 7607  Network.dyn_peer[13]  lookupTimeSig:vector  ETV
vector 7611  Network.dyn_peer[15]  lookupHopsSig:vector  ETV
vector 7612  Network.dyn_peer[15]  lookupStabilitySig:vector  ETV
vector 7613  Network.dyn_peer[15]  lookupTimeSig:vector  ETV
vector 7626  Network.dyn_peer[20]  lookupHopsSig:vector  ETV
vector 7627  Network.dyn_peer[20]  lookupStabilitySig:vector  ETV
vector 7628  Network.dyn_peer[20]  lookupTimeSig:vector  ETV
vector 7656  Network.dyn_peer[30]  lookupHopsSig:vector  ETV
vector 7657  Network.dyn_peer[30]  lookupStabilitySig:vector  ETV
vector 7658  Network.dyn_peer[30]  lookupTimeSig:vector  ETV
vector 7659  Network.dyn_peer[31]  lookupHopsSig:vector  ETV
vector 7660  Network.dyn_peer[31]  lookupStabilitySig:vector  ETV
vector 7661  Network.dyn_peer[31]  lookupTimeSig:vector  ETV
vector 7566  Network.dyn_peer[0]  lookupHopsSig:vector  ETV
vector 7567  Network.dyn_peer[0]  lookupStabilitySig:vector  ETV
vector 7568  Network.dyn_peer[0]  lookupTimeSig:vector  ETV
vector 7572  Network.dyn_peer[2]  lookupHopsSig:vector  ETV
vector 7573  Network.dyn_peer[2]  lookupStabilitySig:vector  ETV
vector 7574  Network.dyn_peer[2]  lookupTimeSig:vector  ETV
vector 7608  Network.dyn_peer[14]  lookupHopsSig:vector  ETV
vector 7609  Network.dyn_peer[14]  lookupStabilitySig:vector  ETV
vector 7610  Network.dyn_peer[14]  lookupTimeSig:vector  ETV
vector 7629  Network.dyn_peer[21]  lookupHopsSig:vector  ETV
vector 7630  Network.dyn_peer[21]  lookupStabilitySig:vector  ETV
vector 7631  Network.dyn_peer[21]  lookupTimeSig:vector  ETV
vector 7635  Network.dyn_peer[23]  lookupHopsSig:vector  ETV
vector 7636  Network.dyn_peer[23]  lookupStabilitySig:vector  ETV
vector 7637  Network.dyn_peer[23]  lookupTimeSig:vector  ETV
vector 7647  Network.dyn_peer[27]  lookupHopsSig:vector  ETV
vector 7648  Network.dyn_peer[27]  lookupStabilitySig:vector  ETV
vector 7649  Network.dyn_peer[27]  lookupTimeSig:vector  ETV
vector 7593  Network.dyn_peer[9]  lookupHopsSig:vector  ETV
vector 7594  Network.dyn_peer[9]  lookupStabilitySig:vector  ETV
vector 7595  Network.dyn_peer[9]  lookupTimeSig:vector  ETV
vector 7614  Network.dyn_peer[16]  lookupHopsSig:vector  ETV
vector 7615  Network.dyn_peer[16]  lookupStabilitySig:vector  ETV
vector 7616  Network.dyn_peer[16]  lookupTimeSig:vector  ETV
vector 7578  Network.dyn_peer[4]  lookupHopsSig:vector  ETV
vector 7579  Network.dyn_peer[4]  lookupStabilitySig:vector  ETV
vector 7580  Network.dyn_peer[4]  lookupTimeSig:vector  ETV
vector 7632  Network.dyn_peer[22]  lookupHopsSig:vector  ETV
vector 7633  Network.dyn_peer[22]  lookupStabilitySig:vector  ETV
vector 7634  Network.dyn_peer[22]  lookupTimeSig:vector  ETV
vector 7641  Network.dyn_peer[25]  lookupHopsSig:vector  ETV
vector 7642  Network.dyn_peer[25]  lookupStabilitySig:vector  ETV
vector 7643  Network.dyn_peer[25]  lookupTimeSig:vector  ETV
7566	283	20.3001	3
7566	740	21.0001	7
7566	1448	21.604326700768	5
7566	2496	22.40485586591	5
7566	2508	22.407281394962	10
7566	2523	22.41082937753	9
7566	2701	22.512360163583	1
7566	3333	23.012360163583	4
7566	4262	23.721627850982	7
7566	4435	23.830425363741	0
7566	4606	23.937166419875	3
7566	5460	24.646523986133	9
7566	5860	25.046523986133	3
7566	7461	26.448311100071	16
7566	7605	26.56967788572	2
7566	7786	26.750292133036	2
7566	8159	27.0543667634	3
7566	8749	27.5543667634	4
7566	9352	28.064006039512	4
7566	9918	28.565455310859	4
7566	10414	28.950706776459	2
7566	11084	29.450706776459	4
7566	11494	29.752272907783	2
7566	11683	29.911066297979	2
7566	12174	30.313949747476	3
7566	12400	30.457259745747	6
7566	12671	30.660651289839	1
7566	12706	30.692451700641	2
7566	13356	31.19813275632	5
7566	14341	32.19813275632	11
7566	14543	32.404892395481	1
7566	15299	33.213355284749	7
7566	15744	33.619030538866	3
7566	15838	33.674945493272	5
7566	16135	33.911894307194	11
7566	16380	34.120865554752	1
7566	16460	34.185833884957	4
7566	16511	34.219396502518	5
7566	17076	34.720260908778	5
7566	17330	34.920260908778	1
7566	17501	35.035891503454	1
7566	18002	35.421195084664	4
7566	18082	35.459404565363	1
7566	18607	35.859604565363	4
7566	19329	36.459604565363	5
7566	19627	36.679228103815	1
7566	19864	36.887235832627	1
7566	20339	37.394959534483	5
7566	21385	38.272027098479	2
7566	21557	38.397751926374	11
7566	22154	38.800868238293	4
7566	22652	39.200868238293	3
7566	22668	39.201068238293	0
7566	22912	39.401068238293	1
7566	23383	39.801268238293	4
7566	24387	40.701268238293	8
7566	24623	40.904073580184	1
7566	24866	41.111134693666	1
7566	24921	41.149843914033	2
7566	25821	41.953421483353	9
7566	26918	42.983680135122	3
7566	27222	43.283680135122	2
7566	27757	43.792456413042	4
7566	28577	44.502385054114	6
7566	28692	44.593086444995	6
7566	28816	44.69522136773	13
7566	28827	44.707208015771	1
7566	28982	44.808090770115	0
7566	29219	45.001784674783	2
7566	29262	45.041425396177	1
7566	29607	45.34940908602	3
7566	29941	45.64940908602	2
7566	30421	46.05421740991	3
7566	30661	46.28099446174	1
7566	31423	46.981647278033	8
7566	31907	47.381647278033	3
7566	32876	48.181847278033	10
7566	34066	49.0908851274	6
7566	34612	49.594317958134	5
7566	34973	49.894317958134	2
7566	35215	50.101258033451	1
7566	35548	50.401560091323	2
7566	35598	50.41052786258	2
7566	35740	50.554790547576	2
7566	36209	50.910633917255	4
7566	36234	50.919460301382	4
7566	36321	51.01255742523	2
7566	36449	51.154990547576	1
7566	36615	51.317777377932	4
7566	37051	51.722189779362	4
7566	37246	51.922189779362	1
7566	37744	52.427235117211	4
7566	38442	53.035654612519	5
7566	38508	53.116442177466	5
7566	38686	53.242297584334	1
7566	38767	53.320746895943	1
7566	39860	54.321445634252	10
7566	40185	54.621445634252	2
7566	40393	54.821975974374	1
7566	40863	55.329196526641	4
7566	41036	55.439226461971	4
7566	41114	55.532955118373	4
7566	41828	56.038183994483	5
7566	42320	56.438183994483	3
7566	42600	56.64391591145	2
7566	43163	57.14391591145	4
7566	44704	58.599824830449	5
7566	45126	58.945505720142	17
7566	45335	59.109429002177	5
7566	45379	59.166513300865	1
7566	46780	60.275119804854	11
7566	47461	60.875119804854	6
7566	49072	62.182739228601	13
7566	49421	62.488010433937	2
7566	49850	62.896428602357	3
7566	50407	63.405398644316	6
7566	50869	63.815367309128	3
7566	51105	64.023180364273	1
7566	51565	64.424691409788	4
7566	52238	65.060274003555	7
7566	52429	65.233343179866	10
7566	52725	65.441401774158	2
7566	53180	65.841401774158	3
7566	54499	67.04261817477	11
7566	55134	67.626759383783	6
7566	55180	67.647046339123	5
7566	56150	68.35601140819	7
7566	57238	69.25601140819	8
7566	57486	69.457651169451	1
7566	57874	69.812597742103	2
7566	58014	69.957867054852	4
7566	58621	70.518489517354	6
7566	58833	70.666428469378	6
7566	58953	70.776240905577	1
7566	59446	71.176240905577	3
7566	60014	71.68350261105	4
7566	61056	72.48527469628	9
7566	61566	72.98527469628	4
7566	62922	74.100870950242	12
7566	63219	74.309560665438	1
7566	63351	74.412645647128	1
7566	64654	75.512645647128	10
7566	65049	75.817536121347	2
7566	65053	75.818691790777	2
7566	66026	76.621115176286	10
7566	67009	77.421315176286	10
7566	67246	77.621315176286	1
7566	67611	77.922661012799	3
7566	67968	78.225163738898	4
7566	68910	79.025163738898	7
7566	69063	79.156892548818	7
7566	69193	79.257849334911	1
7566	69678	79.563322740441	2
7566	70074	79.867274455492	3
7566	70843	80.467474455492	6
7566	71074	80.667474455492	1
7566	71383	80.967674455492	3
7566	71584	81.167674455492	1
7566	72001	81.570591588558	4
7566	72344	81.871601410657	2
7566	73195	82.58307776699	6
7566	73474	82.78327776699	2
7566	73840	83.085811608688	2
7566	74380	83.536022520276	3
7566	74432	83.579399961634	2
7566	74615	83.686028020833	1
7566	75423	84.386028020833	8
7566	76394	85.204316589837	7
7566	76891	85.583044739022	9
7566	77084	85.704698551031	4
7566	77166	85.764077758081	4
7566	77308	85.8917499436	3
7566	78120	86.495485495438	6
7566	78390	86.705120424066	1
7566	78683	86.909829415588	1
7566	79091	87.210029415588	3
7566	79376	87.410029415588	1
7566	79700	87.711631166785	2
7566	79951	87.913979096374	2
7566	80712	88.613979096374	6
7566	80728	88.615596005081	0
7566	80918	88.815596005081	1
7566	81721	89.513272333916	2
7566	81725	89.520557361489	8
7566	82281	90.021049938991	5
7566	83115	90.721049938991	6
7566	83457	91.022077577262	3
7566	83817	91.322077577262	2
7566	84533	91.90290787875	3
7566	85261	92.50310787875	6
7566	87035	94.00310787875	17
7566	87432	94.311079939028	2
7566	88000	94.812388255072	7
7566	88690	95.414575161264	10
7566	89600	96.144752826193	7
7566	89676	96.21619791686	13
7566	89952	96.454487433725	2
7566	90523	96.855192289224	5
7566	91307	97.455192289224	5
7566	91554	97.65739114162	2
7566	91841	97.886791372451	3
7566	92088	98.161526802056	5
7566	92239	98.294836332963	3
7566	92570	98.601210900477	4
7566	92807	98.801210900477	1
7566	92970	98.903227529022	1
7566	93596	99.403227529022	5
7566	94001	99.71020151191	2
7566	94941	100.628911917204	10
7566	94953	100.651088589051	10
7566	95060	100.796434766224	5
7566	95152	100.859788161162	5
7566	95259	100.960491731712	2
7566	96266	101.764462269428	11
7566	97239	102.57562113132	5
7566	97641	102.97562113132	3
7566	98224	103.47680561263	5
7566	98611	103.885874914998	3
7566	98634	103.916292677482	9
7566	98972	104.186152662763	3
7566	98979	104.199884886704	3
7566	99006	104.220806813628	2
7566	100199	105.225261791473	10
7566	101415	106.225261791473	9
7566	102122	106.732230506405	4
7566	103190	107.632230506405	10
7566	103704	108.139729051348	4
7566	104272	108.549674223149	4
7566	104794	108.994255007733	1
7566	105408	109.494255007733	5
7566	105996	109.996883252623	4
7566	106135	110.101362962286	3
7566	106608	110.601562962286	6
7566	107027	111.005502167382	3
7566	107515	111.511487097728	4
7566	108377	112.211687097728	8
7566	109302	112.911687097728	7
7566	109495	113.11663131663	1
7566	109726	113.317957124243	2
7566	111022	114.517957124243	11
7566	111296	114.72716913819	6
7566	111305	114.727825380875	0
7566	111782	115.019224610897	5
7566	112274	115.327601234116	2
7566	112372	115.409638624067	2
7566	113294	116.119403974938	7
7566	114142	116.747227103457	2
7566	115113	117.547227103457	8
7566	115658	118.051665626077	1
7566	115891	118.253053035934	6
7566	116388	118.654792995021	5
7566	116744	118.855989074882	3
7566	117045	119.065543276865	1
7566	117690	119.570042451221	4
7566	118862	120.427527260657	6
7566	119534	120.927727260657	7
7566	119985	121.327727260657	3
7566	120925	122.129580769661	9
7566	122187	123.191271739955	9
7566	122547	123.491111507254	7
7566	122727	123.624805035627	4
7566	123037	123.8936749561	7
7566	123040	123.898103183963	3
7566	123596	124.298303183963	5
7566	124484	124.998303183963	6
7566	124595	125.116337124644	1
7566	125031	125.42337737843	4
7566	125307	125.62337737843	1
7566	125789	126.027063152823	3
7566	126219	126.336480065607	2
7566	126387	126.536532967786	1
7566	126655	126.843242131705	3
7566	127563	127.743242131705	9
7566	127961	128.049120072392	2
7566	128649	128.550263853007	6
7566	129180	128.956848074257	3
7566	130172	129.757048074257	8
7566	131631	130.957048074257	13
7566	131845	131.165649712011	1
7566	132359	131.567585690687	3
7566	132693	131.790295340551	1
7566	133119	132.128697601967	2
7566	133325	132.330554195607	2
7566	134307	133.230554195607	9
7566	134570	133.438315486946	2
7566	136148	134.947341636129	15
7566	137277	135.857142754907	8
7566	138013	136.542351403617	3
7566	138242	136.815960372237	10
7567	283	20.3001	0.625
7567	740	21.0001	0.125
7567	1448	21.604326700768	0.375
7567	2496	22.40485586591	0.375
7567	2508	22.407281394962	-0.25
7567	2523	22.41082937753	-0.125
7567	2701	22.512360163583	0.875
7567	3333	23.012360163583	0.5
7567	4262	23.721627850982	0.125
7567	4435	23.830425363741	1
7567	4606	23.937166419875	0.625
7567	5460	24.646523986133	-0.125
7567	5860	25.046523986133	0.625
7567	7461	26.448311100071	-1
7567	7605	26.56967788572	0.75
7567	7786	26.750292133036	0.75
7567	8159	27.0543667634	0.625
7567	8749	27.5543667634	0.5
7567	9352	28.064006039512	0.5
7567	9918	28.565455310859	0.5
7567	10414	28.950706776459	0.75
7567	11084	29.450706776459	0.5
7567	11494	29.752272907783	0.75
7567	11683	29.911066297979	0.75
7567	12174	30.313949747476	0.625
7567	12400	30.457259745747	0.25
7567	12671	30.660651289839	0.875
7567	12706	30.692451700641	0.75
7567	13356	31.19813275632	0.375
7567	14341	32.19813275632	-0.375
7567	14543	32.404892395481	0.875
7567	15299	33.213355284749	0.125
7567	15744	33.619030538866	0.625
7567	15838	33.674945493272	0.375
7567	16135	33.911894307194	-0.375
7567	16380	34.120865554752	0.875
7567	16460	34.185833884957	0.5
7567	16511	34.219396502518	0.375
7567	17076	34.720260908778	0.375
7567	17330	34.920260908778	0.875
7567	17501	35.035891503454	0.875
7567	18002	35.421195084664	0.5
7567	18082	35.459404565363	0.875
7567	18607	35.859604565363	0.5
7567	19329	36.459604565363	0.375
7567	19627	36.679228103815	0.875
7567	19864	36.887235832627	0.875
7567	20339	37.394959534483	0.375
7567	21385	38.272027098479	0.75
7567	21557	38.397751926374	-0.375
7567	22154	38.800868238293	0.5
7567	22652	39.200868238293	0.625
7567	22668	39.201068238293	1
7567	22912	39.401068238293	0.875
7567	23383	39.801268238293	0.5
7567	24387	40.701268238293	0
7567	24623	40.904073580184	0.875
7567	24866	41.111134693666	0.875
7567	24921	41.149843914033	0.75
7567	25821	41.953421483353	-0.125
7567	26918	42.983680135122	0.625
7567	27222	43.283680135122	0.75
7567	27757	43.792456413042	0.5
7567	28577	44.502385054114	0.25
7567	28692	44.593086444995	0.25
7567	28816	44.69522136773	-0.625
7567	28827	44.707208015771	0.875
7567	28982	44.808090770115	1
7567	29219	45.001784674783	0.75
7567	29262	45.041425396177	0.875
7567	29607	45.34940908602	0.625
7567	29941	45.64940908602	0.75
7567	30421	46.05421740991	0.625
7567	30661	46.28099446174	0.875
7567	31423	46.981647278033	0
7567	31907	47.381647278033	0.625
7567	32876	48.181847278033	-0.25
7567	34066	49.0908851274	0.25
7567	34612	49.594317958134	0.375
7567	34973	49.894317958134	0.75
7567	35215	50.101258033451	0.875
7567	35548	50.401560091323	0.75
7567	35598	50.41052786258	0.75
7567	35740	50.554790547576	0.75
7567	36209	50.910633917255	0.5
7567	36234	50.919460301382	0.5
7567	36321	51.01255742523	0.75
7567	36449	51.154990547576	0.875
7567	36615	51.317777377932	0.5
7567	37051	51.722189779362	0.5
7567	37246	51.922189779362	0.875
7567	37744	52.427235117211	0.5
7567	38442	53.035654612519	0.375
7567	38508	53.116442177466	0.375
7567	38686	53.242297584334	0.875
7567	38767	53.320746895943	0.875
7567	39860	54.321445634252	-0.25
7567	40185	54.621445634252	0.75
7567	40393	54.821975974374	0.875
7567	40863	55.329196526641	0.5
7567	41036	55.439226461971	0.5
7567	41114	55.532955118373	0.5
7567	41828	56.038183994483	0.375
7567	42320	56.438183994483	0.625
7567	42600	56.64391591145	0.77777777612209
7567	43163	57.14391591145	0.5
7567	44704	58.599824830449	0.375
7567	45126	58.945505720142	-1.125
7567	45335	59.109429002177	0.375
7567	45379	59.166513300865	0.875
7567	46780	60.275119804854	-0.375
7567	47461	60.875119804854	0.25
7567	49072	62.182739228601	-0.625
7567	49421	62.488010433937	0.75
7567	49850	62.896428602357	0.625
7567	50407	63.405398644316	0.25
7567	50869	63.815367309128	0.625
7567	51105	64.023180364273	0.875
7567	51565	64.424691409788	0.5
7567	52238	65.060274003555	0.125
7567	52429	65.233343179866	-0.25
7567	52725	65.441401774158	0.75
7567	53180	65.841401774158	0.625
7567	54499	67.04261817477	-0.375
7567	55134	67.626759383783	0.25
7567	55180	67.647046339123	0.375
7567	56150	68.35601140819	0.125
7567	57238	69.25601140819	0
7567	57486	69.457651169451	0.875
7567	57874	69.812597742103	0.75
7567	58014	69.957867054852	0.5
7567	58621	70.518489517354	0.25
7567	58833	70.666428469378	0.25
7567	58953	70.776240905577	0.875
7567	59446	71.176240905577	0.625
7567	60014	71.68350261105	0.5
7567	61056	72.48527469628	-0.125
7567	61566	72.98527469628	0.5
7567	62922	74.100870950242	-0.5
7567	63219	74.309560665438	0.875
7567	63351	74.412645647128	0.875
7567	64654	75.512645647128	-0.25
7567	65049	75.817536121347	0.75
7567	65053	75.818691790777	0.75
7567	66026	76.621115176286	-0.25
7567	67009	77.421315176286	-0.25
7567	67246	77.621315176286	0.875
7567	67611	77.922661012799	0.625
7567	67968	78.225163738898	0.5
7567	68910	79.025163738898	0.125
7567	69063	79.156892548818	0.125
7567	69193	79.257849334911	0.875
7567	69678	79.563322740441	0.75
7567	70074	79.867274455492	0.625
7567	70843	80.467474455492	0.25
7567	71074	80.667474455492	0.875
7567	71383	80.967674455492	0.625
7567	71584	81.167674455492	0.875
7567	72001	81.570591588558	0.5
7567	72344	81.871601410657	0.75
7567	73195	82.58307776699	0.25
7567	73474	82.78327776699	0.75
7567	73840	83.085811608688	0.75
7567	74380	83.536022520276	0.625
7567	74432	83.579399961634	0.75
7567	74615	83.686028020833	0.875
7567	75423	84.386028020833	0
7567	76394	85.204316589837	0.125
7567	76891	85.583044739022	-0.125
7567	77084	85.704698551031	0.5
7567	77166	85.764077758081	0.5
7567	77308	85.8917499436	0.625
7567	78120	86.495485495438	0.25
7567	78390	86.705120424066	0.875
7567	78683	86.909829415588	0.875
7567	79091	87.210029415588	0.625
7567	79376	87.410029415588	0.875
7567	79700	87.711631166785	0.75
7567	79951	87.913979096374	0.75
7567	80712	88.613979096374	0.25
7567	80728	88.615596005081	1
7567	80918	88.815596005081	0.875
7567	81721	89.513272333916	0.75
7567	81725	89.520557361489	0
7567	82281	90.021049938991	0.375
7567	83115	90.721049938991	0.25
7567	83457	91.022077577262	0.625
7567	83817	91.322077577262	0.75
7567	84533	91.90290787875	0.625
7567	85261	92.50310787875	0.25
7567	87035	94.00310787875	-1.125
7567	87432	94.311079939028	0.75
7567	88000	94.812388255072	0.125
7567	88690	95.414575161264	-0.25
7567	89600	96.144752826193	0.125
7567	89676	96.21619791686	-0.625
7567	89952	96.454487433725	0.75
7567	90523	96.855192289224	0.375
7567	91307	97.455192289224	0.375
7567	91554	97.65739114162	0.75
7567	91841	97.886791372451	0.625
7567	92088	98.161526802056	0.375
7567	92239	98.294836332963	0.625
7567	92570	98.601210900477	0.5
7567	92807	98.801210900477	0.875
7567	92970	98.903227529022	0.875
7567	93596	99.403227529022	0.375
7567	94001	99.71020151191	0.75
7567	94941	100.628911917204	-0.25
7567	94953	100.651088589051	-0.25
7567	95060	100.796434766224	0.375
7567	95152	100.859788161162	0.375
7567	95259	100.960491731712	0.75
7567	96266	101.764462269428	-0.375
7567	97239	102.57562113132	0.375
7567	97641	102.97562113132	0.625
7567	98224	103.47680561263	0.375
7567	98611	103.885874914998	0.625
7567	98634	103.916292677482	-0.125
7567	98972	104.186152662763	0.625
7567	98979	104.199884886704	0.625
7567	99006	104.220806813628	0.75
7567	100199	105.225261791473	-0.25
7567	101415	106.225261791473	-0.125
7567	102122	106.732230506405	0.5
7567	103190	107.632230506405	-0.25
7567	103704	108.139729051348	0.5
7567	104272	108.549674223149	0.5
7567	104794	108.994255007733	0.875
7567	105408	109.494255007733	0.375
7567	105996	109.996883252623	0.5
7567	106135	110.101362962286	0.625
7567	106608	110.601562962286	0.25
7567	107027	111.005502167382	0.625
7567	107515	111.511487097728	0.5
7567	108377	112.211687097728	0
7567	109302	112.911687097728	0.125
7567	109495	113.11663131663	0.875
7567	109726	113.317957124243	0.75
7567	111022	114.517957124243	-0.375
7567	111296	114.72716913819	0.25
7567	111305	114.727825380875	1
7567	111782	115.019224610897	0.375
7567	112274	115.327601234116	0.75
7567	112372	115.409638624067	0.75
7567	113294	116.119403974938	0.125
7567	114142	116.747227103457	0.75
7567	115113	117.547227103457	0
7567	115658	118.051665626077	0.875
7567	115891	118.253053035934	0.25
7567	116388	118.654792995021	0.375
7567	116744	118.855989074882	0.625
7567	117045	119.065543276865	0.875
7567	117690	119.570042451221	0.5
7567	118862	120.427527260657	0.25
7567	119534	120.927727260657	0.125
7567	119985	121.327727260657	0.625
7567	120925	122.129580769661	-0.125
7567	122187	123.191271739955	-0.125
7567	122547	123.491111507254	0.125
7567	122727	123.624805035627	0.5
7567	123037	123.8936749561	0.125
7567	123040	123.898103183963	0.625
7567	123596	124.298303183963	0.375
7567	124484	124.998303183963	0.25
7567	124595	125.116337124644	0.875
7567	125031	125.42337737843	0.5
7567	125307	125.62337737843	0.875
7567	125789	126.027063152823	0.625
7567	126219	126.336480065607	0.75
7567	126387	126.536532967786	0.875
7567	126655	126.843242131705	0.625
7567	127563	127.743242131705	-0.125
7567	127961	128.049120072392	0.75
7567	128649	128.550263853007	0.25
7567	129180	128.956848074257	0.625
7567	130172	129.757048074257	0
7567	131631	130.957048074257	-0.625
7567	131845	131.165649712011	0.875
7567	132359	131.567585690687	0.625
7567	132693	131.790295340551	0.875
7567	133119	132.128697601967	0.75
7567	133325	132.330554195607	0.75
7567	134307	133.230554195607	-0.125
7567	134570	133.438315486946	0.75
7567	136148	134.947341636129	-0.875
7567	137277	135.857142754907	0
7567	138013	136.542351403617	0.625
7567	138242	136.815960372237	-0.25
7568	283	20.3001	0.3
7568	740	21.0001	0.7
7568	1448	21.604326700768	0.6
7568	2496	22.40485586591	0.5
7568	2508	22.407281394962	1
7568	2523	22.41082937753	0.8
7568	2701	22.512360163583	0.1
7568	3333	23.012360163583	0.5
7568	4262	23.721627850982	0.7
7568	4435	23.830425363741	0.1
7568	4606	23.937166419875	0.4
7568	5460	24.646523986133	0.7
7568	5860	25.046523986133	0.4
7568	7461	26.448311100071	1.4
7568	7605	26.56967788572	0.3
7568	7786	26.750292133036	0.3
7568	8159	27.0543667634	0.3
7568	8749	27.5543667634	0.5
7568	9352	28.064006039512	0.5
7568	9918	28.565455310859	0.5
7568	10414	28.950706776459	0.2
7568	11084	29.450706776459	0.5
7568	11494	29.752272907783	0.3
7568	11683	29.911066297979	0.3
7568	12174	30.313949747476	0.4
7568	12400	30.457259745747	0.7
7568	12671	30.660651289839	0.2
7568	12706	30.692451700641	0.3
7568	13356	31.19813275632	0.5
7568	14341	32.19813275632	1
7568	14543	32.404892395481	0.2
7568	15299	33.213355284749	0.8
7568	15744	33.619030538866	0.4
7568	15838	33.674945493272	0.6
7568	16135	33.911894307194	1
7568	16380	34.120865554752	0.2
7568	16460	34.185833884957	0.5
7568	16511	34.219396502518	0.5
7568	17076	34.720260908778	0.5
7568	17330	34.920260908778	0.2
7568	17501	35.035891503454	0.2
7568	18002	35.421195084664	0.5
7568	18082	35.459404565363	0.2
7568	18607	35.859604565363	0.4
7568	19329	36.459604565363	0.6
7568	19627	36.679228103815	0.2
7568	19864	36.887235832627	0.2
7568	20339	37.394959534483	0.5
7568	21385	38.272027098479	0.3
7568	21557	38.397751926374	1
7568	22154	38.800868238293	0.4
7568	22652	39.200868238293	0.4
7568	22668	39.201068238293	0
7568	22912	39.401068238293	0.2
7568	23383	39.801268238293	0.4
7568	24387	40.701268238293	0.9
7568	24623	40.904073580184	0.2
7568	24866	41.111134693666	0.2
7568	24921	41.149843914033	0.3
7568	25821	41.953421483353	0.8
7568	26918	42.983680135122	0.3
7568	27222	43.283680135122	0.3
7568	27757	43.792456413042	0.5
7568	28577	44.502385054114	0.7
7568	28692	44.593086444995	0.7
7568	28816	44.69522136773	1.3
7568	28827	44.707208015771	0.2
7568	28982	44.808090770115	0.1
7568	29219	45.001784674783	0.3
7568	29262	45.041425396177	0.2
7568	29607	45.34940908602	0.3
7568	29941	45.64940908602	0.3
7568	30421	46.05421740991	0.4
7568	30661	46.28099446174	0.2
7568	31423	46.981647278033	0.7
7568	31907	47.381647278033	0.4
7568	32876	48.181847278033	0.8
7568	34066	49.0908851274	0.7
7568	34612	49.594317958134	0.5
7568	34973	49.894317958134	0.3
7568	35215	50.101258033451	0.2
7568	35548	50.401560091323	0.3
7568	35598	50.41052786258	0.3
7568	35740	50.554790547576	0.3
7568	36209	50.910633917255	0.5
7568	36234	50.919460301382	0.5
7568	36321	51.01255742523	0.3
7568	36449	51.154990547576	0.2
7568	36615	51.317777377932	0.4
7568	37051	51.722189779362	0.4
7568	37246	51.922189779362	0.2
7568	37744	52.427235117211	0.5
7568	38442	53.035654612519	0.6
7568	38508	53.116442177466	0.6
7568	38686	53.242297584334	0.2
7568	38767	53.320746895943	0.2
7568	39860	54.321445634252	1
7568	40185	54.621445634252	0.3
7568	40393	54.821975974374	0.2
7568	40863	55.329196526641	0.5
7568	41036	55.439226461971	0.5
7568	41114	55.532955118373	0.5
7568	41828	56.038183994483	0.5
7568	42320	56.438183994483	0.4
7568	42600	56.64391591145	0.2
7568	43163	57.14391591145	0.5
7568	44704	58.599824830449	0.6
7568	45126	58.945505720142	1.8
7568	45335	59.109429002177	0.5
7568	45379	59.166513300865	0.2
7568	46780	60.275119804854	1.1
7568	47461	60.875119804854	0.6
7568	49072	62.182739228601	1.3
7568	49421	62.488010433937	0.3
7568	49850	62.896428602357	0.4
7568	50407	63.405398644316	0.5
7568	50869	63.815367309128	0.4
7568	51105	64.023180364273	0.2
7568	51565	64.424691409788	0.4
7568	52238	65.060274003555	0.8
7568	52429	65.233343179866	0.8
7568	52725	65.441401774158	0.2
7568	53180	65.841401774158	0.4
7568	54499	67.04261817477	1.2
7568	55134	67.626759383783	0.7
7568	55180	67.647046339123	0.6
7568	56150	68.35601140819	0.7
7568	57238	69.25601140819	0.9
7568	57486	69.457651169451	0.2
7568	57874	69.812597742103	0.2
7568	58014	69.957867054852	0.5
7568	58621	70.518489517354	0.7
7568	58833	70.666428469378	0.7
7568	58953	70.776240905577	0.1
7568	59446	71.176240905577	0.4
7568	60014	71.68350261105	0.5
7568	61056	72.48527469628	0.8
7568	61566	72.98527469628	0.5
7568	62922	74.100870950242	1.1
7568	63219	74.309560665438	0.2
7568	63351	74.412645647128	0.1
7568	64654	75.512645647128	1.1
7568	65049	75.817536121347	0.3
7568	65053	75.818691790777	0.3
7568	66026	76.621115176286	0.8
7568	67009	77.421315176286	0.8
7568	67246	77.621315176286	0.2
7568	67611	77.922661012799	0.3
7568	67968	78.225163738898	0.3
7568	68910	79.025163738898	0.8
7568	69063	79.156892548818	0.8
7568	69193	79.257849334911	0.1
7568	69678	79.563322740441	0.3
7568	70074	79.867274455492	0.3
7568	70843	80.467474455492	0.6
7568	71074	80.667474455492	0.2
7568	71383	80.967674455492	0.3
7568	71584	81.167674455492	0.2
7568	72001	81.570591588558	0.4
7568	72344	81.871601410657	0.3
7568	73195	82.58307776699	0.7
7568	73474	82.78327776699	0.2
7568	73840	83.085811608688	0.3
7568	74380	83.536022520276	0.4
7568	74432	83.579399961634	0.3
7568	74615	83.686028020833	0.1
7568	75423	84.386028020833	0.7
7568	76394	85.204316589837	0.8
7568	76891	85.583044739022	1
7568	77084	85.704698551031	0.5
7568	77166	85.764077758081	0.5
7568	77308	85.8917499436	0.3
7568	78120	86.495485495438	0.6
7568	78390	86.705120424066	0.2
7568	78683	86.909829415588	0.2
7568	79091	87.210029415588	0.3
7568	79376	87.410029415588	0.2
7568	79700	87.711631166785	0.3
7568	79951	87.913979096374	0.2
7568	80712	88.613979096374	0.7
7568	80728	88.615596005081	0
7568	80918	88.815596005081	0.2
7568	81721	89.513272333916	0.3
7568	81725	89.520557361489	0.7