file 1025084 1369933138                                         
version 2
run Stability-63-20130528-00:54:13-21385
attr configname Stability
attr datetime 20130528-00:54:13
attr experiment Stability
attr inifile omnetpp.ini
attr iterationvars $0=1e0
attr iterationvars2 "$0=1e0, $repetition=3"
attr measurement $0=1e0
attr network Network
attr processid 21385
attr repetition 3
attr replication #3
attr resultdir results
attr runnumber 63
attr seedset 63
vector 6207  Network.churner  inGoingSizeSig:vector  ETV
6207	901186 123898 22 137924 20 137.208567986134 4097 0 31 125397 3859943
vector 6117  Network.dyn_peer[2]  lookupHopsSig:vector  ETV
6117	61282 9131 35 136479 20.003 134.605371946625 311 0 26 1293 8603
vector 6118  Network.dyn_peer[2]  lookupStabilitySig:vector  ETV
6118	70413 10123 35 136479 20.003 134.605371946625 311 -2.25 1 149.65277776122 122.24864968179
vector 6119  Network.dyn_peer[2]  lookupTimeSig:vector  ETV
6119	80536 9712 35 136479 20.003 134.605371946625 311 0 2.2 146.6 95.1
vector 6168  Network.dyn_peer[19]  lookupHopsSig:vector  ETV
6168	532781 8246 91 137120 20.02 135.324793750003 281 0 23 1193 8469
vector 6169  Network.dyn_peer[19]  lookupStabilitySig:vector  ETV
6169	541027 9182 91 137120 20.02 135.324793750003 281 -1.875 1 131.97222220153 115.15123455318
vector 6170  Network.dyn_peer[19]  lookupTimeSig:vector  ETV
6170	550209 8761 91 137120 20.02 135.324793750003 281 0 1.9 132.9 89.55
vector 6189  Network.dyn_peer[26]  lookupHopsSig:vector  ETV
6189	731391 9334 116 137797 20.027 136.214424276458 318 0 20 1347 9205
vector 6190  Network.dyn_peer[26]  lookupStabilitySig:vector  ETV
6190	740725 10409 116 137797 20.027 136.214424276458 318 -1.5 1 149.74999996275 125.21334872717
vector 6191  Network.dyn_peer[26]  lookupTimeSig:vector  ETV
6191	751134 9910 116 137797 20.027 136.214424276458 318 0 1.9 150.2 99.02
vector 6111  Network.dyn_peer[0]  lookupHopsSig:vector  ETV
6111	6435 8415 136 137922 20.101 137.202512556734 287 0 15 1236 7910
vector 6112  Network.dyn_peer[0]  lookupStabilitySig:vector  ETV
6112	14850 9375 136 137922 20.101 137.202512556734 287 -0.875 1 132.59722220898 101.62750771016
vector 6113  Network.dyn_peer[0]  lookupTimeSig:vector  ETV
6113	24225 8951 136 137922 20.101 137.202512556734 287 0 1.4 136.4 84.96
vector 6120  Network.dyn_peer[3]  lookupHopsSig:vector  ETV
6120	90248 8449 142 137029 20.104 135.22707794195 287 0 16 1194 7498
vector 6121  Network.dyn_peer[3]  lookupStabilitySig:vector  ETV
6121	98697 9368 142 137029 20.104 135.22707794195 287 -1 1 137.83333331347 105.70486109787
vector 6122  Network.dyn_peer[3]  lookupTimeSig:vector  ETV
6122	108065 8990 142 137029 20.104 135.22707794195 287 0 1.6 135.3 85.79
vector 6123  Network.dyn_peer[4]  lookupHopsSig:vector  ETV
6123	117055 8537 147 136835 20.105 135.016610265585 291 0 23 1328 9506
vector 6124  Network.dyn_peer[4]  lookupStabilitySig:vector  ETV
6124	125592 9485 147 136835 20.105 135.016610265585 291 -1.875 1 125 107.53125
vector 6125  Network.dyn_peer[4]  lookupTimeSig:vector  ETV
6125	135077 9060 147 136835 20.105 135.016610265585 291 0.1 2.2 146.7 102.41
vector 6129  Network.dyn_peer[6]  lookupHopsSig:vector  ETV
6129	170646 7712 153 137106 20.107 135.323104271293 262 0 22 1196 9430
vector 6130  Network.dyn_peer[6]  lookupStabilitySig:vector  ETV
6130	178358 8580 153 137106 20.107 135.323104271293 262 -1.75 1 112.66666661203 110.33603395982
vector 6131  Network.dyn_peer[6]  lookupTimeSig:vector  ETV
6131	186938 8209 153 137106 20.107 135.323104271293 262 0.1 1.9 132.5 98.83
vector 6171  Network.dyn_peer[20]  lookupHopsSig:vector  ETV
6171	558970 9008 173 136656 20.121 134.814960414011 306 0 19 1289 8129
vector 6172  Network.dyn_peer[20]  lookupStabilitySig:vector  ETV
6172	567978 9999 173 136656 20.121 134.814960414011 306 -1.375 1 144.90277777612 110.80806326903
vector 6173  Network.dyn_peer[20]  lookupTimeSig:vector  ETV
6173	577977 9580 173 136656 20.121 134.814960414011 306 0 1.7 144.5 90.33
vector 6183  Network.dyn_peer[24]  lookupHopsSig:vector  ETV
6183	676607 8319 181 137540 20.125 135.83262083508 284 0 24 1236 8542
vector 6184  Network.dyn_peer[24]  lookupStabilitySig:vector  ETV
6184	684926 9236 181 137540 20.125 135.83262083508 284 -2 1 129.73611107469 108.56385027185
vector 6185  Network.dyn_peer[24]  lookupTimeSig:vector  ETV
6185	694162 8849 181 137540 20.125 135.83262083508 284 0 2.2 137.5 91.79
vector 6186  Network.dyn_peer[25]  lookupHopsSig:vector  ETV
6186	703011 8950 186 137332 20.126 135.551875030375 304 0 16 1288 8340
vector 6187  Network.dyn_peer[25]  lookupStabilitySig:vector  ETV
6187	711961 9925 186 137332 20.126 135.551875030375 304 -1 1 143 112.3125
vector 6188  Network.dyn_peer[25]  lookupTimeSig:vector  ETV
6188	721886 9505 186 137332 20.126 135.551875030375 304 0 1.4 144.6 92.5
vector 6195  Network.dyn_peer[28]  lookupHopsSig:vector  ETV
6195	788413 8627 193 137704 20.129 136.034307578969 293 0 24 1303 9221
vector 6196  Network.dyn_peer[28]  lookupStabilitySig:vector  ETV
6196	797040 9606 193 137704 20.129 136.034307578969 293 -2 1 130.125 111.328125
vector 6197  Network.dyn_peer[28]  lookupTimeSig:vector  ETV
6197	806646 9166 193 137704 20.129 136.034307578969 293 0 1.9 143.7 96.75
vector 6201  Network.dyn_peer[30]  lookupHopsSig:vector  ETV
6201	842536 8769 199 136736 20.131 134.915442784348 299 0 18 1220 7954
vector 6202  Network.dyn_peer[30]  lookupStabilitySig:vector  ETV
6202	851305 9738 199 136736 20.131 134.915442784348 299 -1.25 1 146.58333331347 118.32986109787
vector 6203  Network.dyn_peer[30]  lookupTimeSig:vector  ETV
6203	861043 9325 199 136736 20.131 134.915442784348 299 0 1.7 136.3 86.57
vector 6126  Network.dyn_peer[5]  lookupHopsSig:vector  ETV
6126	144137 8345 209 137878 20.206 136.473469774662 285 0 23 1248 8302
vector 6127  Network.dyn_peer[5]  lookupStabilitySig:vector  ETV
6127	152482 9285 209 137878 20.206 136.473469774662 285 -1.875 1 129.04166665673 102.7725694312
vector 6128  Network.dyn_peer[5]  lookupTimeSig:vector  ETV
6128	161767 8879 209 137878 20.206 136.473469774662 285 0 2 138.2 89.94
vector 6135  Network.dyn_peer[8]  lookupHopsSig:vector  ETV
6135	226029 8777 217 137199 20.209 135.424474090055 297 0 19 1307 9265
vector 6136  Network.dyn_peer[8]  lookupStabilitySig:vector  ETV
6136	234806 9750 217 137199 20.209 135.424474090055 297 -1.375 1 133.625 115.015625
vector 6137  Network.dyn_peer[8]  lookupTimeSig:vector  ETV
6137	244556 9324 217 137199 20.209 135.424474090055 297 0 1.9 145.8 99.78
vector 6138  Network.dyn_peer[9]  lookupHopsSig:vector  ETV
6138	253880 8912 223 136933 20.21 135.121529884543 303 0 26 1320 9358
vector 6139  Network.dyn_peer[9]  lookupStabilitySig:vector  ETV
6139	262792 9915 223 136933 20.21 135.121529884543 303 -2.25 1 138.02777777612 119.26774691064
vector 6140  Network.dyn_peer[9]  lookupTimeSig:vector  ETV
6140	272707 9484 223 136933 20.21 135.121529884543 303 0 2.1 145.9 97.83
vector 6141  Network.dyn_peer[10]  lookupHopsSig:vector  ETV
6141	282191 8900 228 137515 20.211 135.825010689458 302 0 16 1222 7682
vector 6142  Network.dyn_peer[10]  lookupStabilitySig:vector  ETV
6142	291091 9892 228 137515 20.211 135.825010689458 302 -1 1 149.34722220898 116.64371140283
vector 6143  Network.dyn_peer[10]  lookupTimeSig:vector  ETV
6143	300983 9452 228 137515 20.211 135.825010689458 302 0 1.5 137.2 85.58
vector 6150  Network.dyn_peer[13]  lookupHopsSig:vector  ETV
6150	363518 8956 236 137224 20.214 135.431672909946 305 0 14 1273 8011
vector 6151  Network.dyn_peer[13]  lookupStabilitySig:vector  ETV
6151	372474 9931 236 137224 20.214 135.431672909946 305 -0.75 1 145.875 111.921875
vector 6152  Network.dyn_peer[13]  lookupTimeSig:vector  ETV
6152	382405 9529 236 137224 20.214 135.431672909946 305 0 1.3 140.8 87.18
vector 6156  Network.dyn_peer[15]  lookupHopsSig:vector  ETV
6156	418683 8373 242 136574 20.216 134.714184770079 285 0 23 1254 8716
vector 6157  Network.dyn_peer[15]  lookupStabilitySig:vector  ETV
6157	427056 9311 242 136574 20.216 134.714184770079 285 -1.875 1 128.25 107.6875
vector 6158  Network.dyn_peer[15]  lookupTimeSig:vector  ETV
6158	436367 8908 242 136574 20.216 134.714184770079 285 0.1 2.2 138.5 92.83
vector 6174  Network.dyn_peer[21]  lookupHopsSig:vector  ETV
6174	587557 9706 254 137216 20.222 135.42643409183 331 0 17 1251 7327
vector 6175  Network.dyn_peer[21]  lookupStabilitySig:vector  ETV
6175	597263 10818 254 137216 20.222 135.42643409183 331 -1.125 1 174.625 132.734375
vector 6176  Network.dyn_peer[21]  lookupTimeSig:vector  ETV
6176	608081 10331 254 137216 20.222 135.42643409183 331 0 1.7 143.1 83.79
vector 6177  Network.dyn_peer[22]  lookupHopsSig:vector  ETV
6177	618412 9410 259 137442 20.223 135.724635900091 320 0 23 1233 7565
vector 6178  Network.dyn_peer[22]  lookupStabilitySig:vector  ETV
6178	627822 10469 259 137442 20.223 135.724635900091 320 -1.875 1 165.9999999851 130.02932097919
vector 6179  Network.dyn_peer[22]  lookupTimeSig:vector  ETV
6179	638291 10014 259 137442 20.223 135.724635900091 320 0 2.2 139.6 83.44
vector 6180  Network.dyn_peer[23]  lookupHopsSig:vector  ETV
6180	648305 8906 264 137731 20.224 136.047233501894 303 0 18 1275 8167
vector 6181  Network.dyn_peer[23]  lookupStabilitySig:vector  ETV
6181	657211 9926 264 137731 20.224 136.047233501894 303 -1.25 1 143.68055555224 111.94425153806
vector 6182  Network.dyn_peer[23]  lookupTimeSig:vector  ETV
6182	667137 9470 264 137731 20.224 136.047233501894 303 0 1.7 144.3 91.55
vector 6192  Network.dyn_peer[27]  lookupHopsSig:vector  ETV
6192	761044 8614 273 137536 20.228 135.831866479015 294 0 17 1324 8968
vector 6193  Network.dyn_peer[27]  lookupStabilitySig:vector  ETV
6193	769658 9598 273 137536 20.228 135.831866479015 294 -1.125 1 128.58333331347 103.17361109787
vector 6194  Network.dyn_peer[27]  lookupTimeSig:vector  ETV
6194	779256 9157 273 137536 20.228 135.831866479015 294 0 1.6 146.2 97.02
vector 6198  Network.dyn_peer[29]  lookupHopsSig:vector  ETV
6198	815812 8419 280 137423 20.23 135.710242398333 287 0 24 1210 8440
vector 6199  Network.dyn_peer[29]  lookupStabilitySig:vector  ETV
6199	824231 9368 280 137423 20.23 135.710242398333 287 -2 1 135.79166665673 116.4288194312
vector 6200  Network.dyn_peer[29]  lookupTimeSig:vector  ETV
6200	833599 8937 280 137423 20.23 135.710242398333 287 0 2.2 135.2 91.54
vector 6204  Network.dyn_peer[31]  lookupHopsSig:vector  ETV
6204	870368 9703 286 137756 20.232 136.113137394469 329 0 25 1295 8891
vector 6205  Network.dyn_peer[31]  lookupStabilitySig:vector  ETV
6205	880071 10793 286 137756 20.232 136.113137394469 329 -2.125 1 167.20833331347 144.22048609787
vector 6206  Network.dyn_peer[31]  lookupTimeSig:vector  ETV
6206	890864 10322 286 137756 20.232 136.113137394469 329 0 2.3 147.5 96.89
vector 6132  Network.dyn_peer[7]  lookupHopsSig:vector  ETV
6132	195147 9715 299 136715 20.308 134.906190052772 330 0 18 1341 8457
vector 6133  Network.dyn_peer[7]  lookupStabilitySig:vector  ETV
6133	204862 10820 299 136715 20.308 134.906190052772 330 -1.25 1 162.51388885826 127.0306712676
vector 6134  Network.dyn_peer[7]  lookupTimeSig:vector  ETV
6134	215682 10347 299 136715 20.308 134.906190052772 330 0 1.7 151.5 94.15
vector 6144  Network.dyn_peer[11]  lookupHopsSig:vector  ETV
6144	310435 8567 308 137477 20.312 135.747522252805 291 0 21 1430 11214
vector 6145  Network.dyn_peer[11]  lookupStabilitySig:vector  ETV
6145	319002 9508 308 137477 20.312 135.747522252805 291 -1.625 1 112.25 108.71875
vector 6146  Network.dyn_peer[11]  lookupTimeSig:vector  ETV
6146	328510 9075 308 137477 20.312 135.747522252805 291 0 1.7 154.5 113.35
vector 6147  Network.dyn_peer[12]  lookupHopsSig:vector  ETV
6147	337585 8166 313 136793 20.313 134.978843595966 278 0 25 1151 7883
vector 6148  Network.dyn_peer[12]  lookupStabilitySig:vector  ETV
6148	345751 9083 313 136793 20.313 134.978843595966 278 -2.125 1 134.13888888806 113.44637345532
vector 6149  Network.dyn_peer[12]  lookupTimeSig:vector  ETV
6149	354834 8684 313 136793 20.313 134.978843595966 278 0 2.2 127.8 82.24
vector 6153  Network.dyn_peer[14]  lookupHopsSig:vector  ETV
6153	391934 8419 319 137616 20.315 135.914143974693 286 0 24 1219 8389
vector 6154  Network.dyn_peer[14]  lookupStabilitySig:vector  ETV
6154	400353 9367 319 137616 20.315 135.914143974693 286 -2 1 133.84722220898 112.42496140283
vector 6155  Network.dyn_peer[14]  lookupTimeSig:vector  ETV
6155	409720 8963 319 137616 20.315 135.914143974693 286 0 2.2 136.5 89.97
vector 6159  Network.dyn_peer[16]  lookupHopsSig:vector  ETV
6159	445275 9382 326 137827 20.317 136.246028866261 320 0 16 1252 7594
vector 6160  Network.dyn_peer[16]  lookupStabilitySig:vector  ETV
6160	454657 10404 326 137827 20.317 136.246028866261 320 -1 1 163.59722220898 125.69000771016
vector 6161  Network.dyn_peer[16]  lookupTimeSig:vector  ETV
6161	465061 9989 326 137827 20.317 136.246028866261 320 0 1.6 141.3 86.13
vector 6162  Network.dyn_peer[17]  lookupHopsSig:vector  ETV
6162	475050 8883 332 137590 20.318 135.857065703411 302 0 23 1206 8138
vector 6163  Network.dyn_peer[17]  lookupStabilitySig:vector  ETV
6163	483933 9896 332 137590 20.318 135.857065703411 302 -1.875 1 151.25 127.65625
vector 6164  Network.dyn_peer[17]  lookupTimeSig:vector  ETV
6164	493829 9455 332 137590 20.318 135.857065703411 302 0 2.1 137.1 89.55
vector 6114  Network.dyn_peer[1]  lookupHopsSig:vector  ETV
6114	33176 8864 357 137653 20.402 135.937401463132 302 0 24 1408 11038
vector 6115  Network.dyn_peer[1]  lookupStabilitySig:vector  ETV
6115	42040 9837 357 137653 20.402 135.937401463132 302 -2 1 126.06944441795 122.52565584065
vector 6116  Network.dyn_peer[1]  lookupTimeSig:vector  ETV
6116	51877 9405 357 137653 20.402 135.937401463132 302 0 2.1 154 113.74
vector 6165  Network.dyn_peer[18]  lookupHopsSig:vector  ETV
6165	503284 9286 385 137396 20.419 135.644367690658 317 0 18 1277 8073
vector 6166  Network.dyn_peer[18]  lookupStabilitySig:vector  ETV
6166	512570 10335 385 137396 20.419 135.644367690658 317 -1.25 1 157.47222220898 123.92438271016
vector 6167  Network.dyn_peer[18]  lookupTimeSig:vector  ETV
6167	522905 9876 385 137396 20.419 135.644367690658 317 0 1.6 143.3 88.53
