version 2
run Stability-86-20130528-00:55:56-21385
attr configname Stability
attr datetime 20130528-00:55:56
attr experiment Stability
attr inifile omnetpp.ini
attr iterationvars $0=1e-2
attr iterationvars2 "$0=1e-2, $repetition=6"
attr measurement $0=1e-2
attr network Network
attr processid 21385
attr repetition 6
attr replication #6
attr resultdir results
attr runnumber 86
attr seedset 86

vector 8438  Network.churner  inGoingSizeSig:vector  ETV
vector 8402  Network.dyn_peer[20]  lookupHopsSig:vector  ETV
vector 8403  Network.dyn_peer[20]  lookupStabilitySig:vector  ETV
vector 8404  Network.dyn_peer[20]  lookupTimeSig:vector  ETV
vector 8423  Network.dyn_peer[27]  lookupHopsSig:vector  ETV
vector 8424  Network.dyn_peer[27]  lookupStabilitySig:vector  ETV
vector 8425  Network.dyn_peer[27]  lookupTimeSig:vector  ETV
vector 8435  Network.dyn_peer[31]  lookupHopsSig:vector  ETV
vector 8436  Network.dyn_peer[31]  lookupStabilitySig:vector  ETV
vector 8437  Network.dyn_peer[31]  lookupTimeSig:vector  ETV
vector 8345  Network.dyn_peer[1]  lookupHopsSig:vector  ETV
vector 8346  Network.dyn_peer[1]  lookupStabilitySig:vector  ETV
vector 8347  Network.dyn_peer[1]  lookupTimeSig:vector  ETV
vector 8348  Network.dyn_peer[2]  lookupHopsSig:vector  ETV
vector 8349  Network.dyn_peer[2]  lookupStabilitySig:vector  ETV
vector 8350  Network.dyn_peer[2]  lookupTimeSig:vector  ETV
vector 8351  Network.dyn_peer[3]  lookupHopsSig:vector  ETV
vector 8352  Network.dyn_peer[3]  lookupStabilitySig:vector  ETV
vector 8353  Network.dyn_peer[3]  lookupTimeSig:vector  ETV
vector 8357  Network.dyn_peer[5]  lookupHopsSig:vector  ETV
vector 8358  Network.dyn_peer[5]  lookupStabilitySig:vector  ETV
vector 8359  Network.dyn_peer[5]  lookupTimeSig:vector  ETV
vector 8360  Network.dyn_peer[6]  lookupHopsSig:vector  ETV
vector 8361  Network.dyn_peer[6]  lookupStabilitySig:vector  ETV
vector 8362  Network.dyn_peer[6]  lookupTimeSig:vector  ETV
vector 8372  Network.dyn_peer[10]  lookupHopsSig:vector  ETV
vector 8373  Network.dyn_peer[10]  lookupStabilitySig:vector  ETV
vector 8374  Network.dyn_peer[10]  lookupTimeSig:vector  ETV
vector 8375  Network.dyn_peer[11]  lookupHopsSig:vector  ETV
vector 8376  Network.dyn_peer[11]  lookupStabilitySig:vector  ETV
vector 8377  Network.dyn_peer[11]  lookupTimeSig:vector  ETV
vector 8381  Network.dyn_peer[13]  lookupHopsSig:vector  ETV
vector 8382  Network.dyn_peer[13]  lookupStabilitySig:vector  ETV
vector 8383  Network.dyn_peer[13]  lookupTimeSig:vector  ETV
vector 8384  Network.dyn_peer[14]  lookupHopsSig:vector  ETV
vector 8385  Network.dyn_peer[14]  lookupStabilitySig:vector  ETV
vector 8386  Network.dyn_peer[14]  lookupTimeSig:vector  ETV
vector 8405  Network.dyn_peer[21]  lookupHopsSig:vector  ETV
vector 8406  Network.dyn_peer[21]  lookupStabilitySig:vector  ETV
vector 8407  Network.dyn_peer[21]  lookupTimeSig:vector  ETV
vector 8411  Network.dyn_peer[23]  lookupHopsSig:vector  ETV
vector 8412  Network.dyn_peer[23]  lookupStabilitySig:vector  ETV
vector 8413  Network.dyn_peer[23]  lookupTimeSig:vector  ETV
vector 8417  Network.dyn_peer[25]  lookupHopsSig:vector  ETV
vector 8418  Network.dyn_peer[25]  lookupStabilitySig:vector  ETV
vector 8419  Network.dyn_peer[25]  lookupTimeSig:vector  ETV
vector 8426  Network.dyn_peer[28]  lookupHopsSig:vector  ETV
vector 8427  Network.dyn_peer[28]  lookupStabilitySig:vector  ETV
vector 8428  Network.dyn_peer[28]  lookupTimeSig:vector  ETV
vector 8342  Network.dyn_peer[0]  lookupHopsSig:vector  ETV
vector 8343  Network.dyn_peer[0]  lookupStabilitySig:vector  ETV
vector 8344  Network.dyn_peer[0]  lookupTimeSig:vector  ETV
vector 8354  Network.dyn_peer[4]  lookupHopsSig:vector  ETV
vector 8355  Network.dyn_peer[4]  lookupStabilitySig:vector  ETV
vector 8356  Network.dyn_peer[4]  lookupTimeSig:vector  ETV
vector 8363  Network.dyn_peer[7]  lookupHopsSig:vector  ETV
vector 8364  Network.dyn_peer[7]  lookupStabilitySig:vector  ETV
vector 8365  Network.dyn_peer[7]  lookupTimeSig:vector  ETV
vector 8369  Network.dyn_peer[9]  lookupHopsSig:vector  ETV
vector 8370  Network.dyn_peer[9]  lookupStabilitySig:vector  ETV
vector 8371  Network.dyn_peer[9]  lookupTimeSig:vector  ETV
vector 8378  Network.dyn_peer[12]  lookupHopsSig:vector  ETV
vector 8379  Network.dyn_peer[12]  lookupStabilitySig:vector  ETV
vector 8380  Network.dyn_peer[12]  lookupTimeSig:vector  ETV
vector 8393  Network.dyn_peer[17]  lookupHopsSig:vector  ETV
vector 8394  Network.dyn_peer[17]  lookupStabilitySig:vector  ETV
vector 8395  Network.dyn_peer[17]  lookupTimeSig:vector  ETV
vector 8399  Network.dyn_peer[19]  lookupHopsSig:vector  ETV
vector 8400  Network.dyn_peer[19]  lookupStabilitySig:vector  ETV
vector 8401  Network.dyn_peer[19]  lookupTimeSig:vector  ETV
vector 8408  Network.dyn_peer[22]  lookupHopsSig:vector  ETV
vector 8409  Network.dyn_peer[22]  lookupStabilitySig:vector  ETV
vector 8410  Network.dyn_peer[22]  lookupTimeSig:vector  ETV
vector 8420  Network.dyn_peer[26]  lookupHopsSig:vector  ETV
vector 8421  Network.dyn_peer[26]  lookupStabilitySig:vector  ETV
vector 8422  Network.dyn_peer[26]  lookupTimeSig:vector  ETV
vector 8429  Network.dyn_peer[29]  lookupHopsSig:vector  ETV
vector 8430  Network.dyn_peer[29]  lookupStabilitySig:vector  ETV
vector 8431  Network.dyn_peer[29]  lookupTimeSig:vector  ETV
vector 8387  Network.dyn_peer[15]  lookupHopsSig:vector  ETV
vector 8388  Network.dyn_peer[15]  lookupStabilitySig:vector  ETV
vector 8389  Network.dyn_peer[15]  lookupTimeSig:vector  ETV
vector 8432  Network.dyn_peer[30]  lookupHopsSig:vector  ETV
vector 8433  Network.dyn_peer[30]  lookupStabilitySig:vector  ETV
vector 8434  Network.dyn_peer[30]  lookupTimeSig:vector  ETV
vector 8390  Network.dyn_peer[16]  lookupHopsSig:vector  ETV
vector 8391  Network.dyn_peer[16]  lookupStabilitySig:vector  ETV
vector 8392  Network.dyn_peer[16]  lookupTimeSig:vector  ETV
vector 8414  Network.dyn_peer[24]  lookupHopsSig:vector  ETV
vector 8415  Network.dyn_peer[24]  lookupStabilitySig:vector  ETV
vector 8416  Network.dyn_peer[24]  lookupTimeSig:vector  ETV
vector 8396  Network.dyn_peer[18]  lookupHopsSig:vector  ETV
vector 8397  Network.dyn_peer[18]  lookupStabilitySig:vector  ETV
vector 8398  Network.dyn_peer[18]  lookupTimeSig:vector  ETV
vector 8366  Network.dyn_peer[8]  lookupHopsSig:vector  ETV
vector 8367  Network.dyn_peer[8]  lookupStabilitySig:vector  ETV
vector 8368  Network.dyn_peer[8]  lookupTimeSig:vector  ETV
8342	222	20.20001	2
8342	865	21.20001	9
8342	1114	21.40207066902	1
8342	1635	21.81622336327	4
8342	1991	22.110783392065	6
8342	2519	22.517085256806	4
8342	3097	22.920055272967	5
8342	3487	23.220055272967	2
8342	3600	23.320452443123	1
8342	3894	23.620452443123	2
8342	4933	24.522585451155	8
8342	5368	24.927350033096	3
8342	5516	25.04630293768	3
8342	5795	25.329187298548	16
8342	5899	25.436186702137	4
8342	6112	25.555022634687	4
8342	6612	25.962005221641	4
8342	7120	26.467958277987	4
8342	7683	26.973141452622	4
8342	7699	26.998989061016	4
8342	8092	27.375057510448	3
8342	8395	27.578018143353	2
8342	8589	27.778018143353	1
8342	9240	28.2830753384	4
8342	9528	28.517147270968	4
8342	9803	28.692109103398	3
8342	10671	29.392219103398	8
8342	11058	29.792219103398	3
8342	11358	30.000413643404	3
8342	12974	31.376763485662	2
8342	13510	31.776763485662	3
8342	14011	32.178254385165	3
8342	14505	32.580169169668	4
8342	14507	32.583034563198	4
8342	14512	32.583134563198	3
8342	14801	32.883426659892	2
8342	14806	32.887057734842	2
8342	14809	32.888926432642	2
8342	14992	33.088054791688	1
8342	14996	33.089943655002	1
8342	15002	33.092448112897	1
8342	15326	33.392558112897	3
8342	16022	34.059632658579	0
8342	16702	34.659632658579	5
8342	16954	34.859742658579	3
8342	17552	35.359742658579	4
8342	18275	35.867425920062	4
8342	18627	36.079364416169	2
8342	19084	36.388715852837	2
8342	19091	36.392851366383	7
8342	19591	36.792961366383	4
8342	20046	37.092961366383	2
8342	20657	37.601657472023	4
8342	21442	38.309750334576	6
8342	23319	39.909860334576	17
8342	24028	40.509860334576	5
8342	24582	41.011302267879	4
8342	24855	41.213707351291	2
8342	25335	41.520891482138	4
8342	25377	41.530129314398	4
8342	26834	42.635846561643	11
8342	27301	43.026921648912	1
8342	27327	43.035846561643	3
8342	27583	43.244273065643	2
8342	28408	43.944273065643	6
8342	28838	44.346885247181	3
8342	29160	44.650690759543	2
8342	29623	44.95538744375	3
8342	30421	45.65538744375	6
8342	30690	45.860139579192	1
8342	30937	46.060249579192	2
8342	31480	46.560249579192	5
8342	32057	46.974565817672	3
8342	32441	47.276599605314	2
8342	33066	47.785094556591	4
8342	33913	48.2871544171	6
8342	34568	48.7871544171	5
8342	34802	49.000708794643	1
8342	35209	49.305877721842	2
8342	35272	49.353884371324	2
8342	35604	49.558423033422	2
8342	36507	50.258423033422	8
8342	36910	50.567618044363	2
8342	37240	50.775735374826	2
8342	38401	51.675735374826	11
8342	39250	52.380868033146	6
8342	39379	52.502854154021	4
8342	39999	53.005824554904	5
8342	40090	53.089221423977	6
8342	40411	53.370595763849	3
8342	40579	53.495268735839	3
8342	41037	53.896750600531	4
8342	42591	55.196750600531	13
8342	42849	55.404196585223	1
8342	43304	55.810362292241	4
8342	43721	56.210362292241	3
8342	43969	56.416232092887	2
8342	44282	56.674787316469	3
8342	44772	57.078656476258	4
8342	45033	57.281485184227	2
8342	45281	57.508248400027	8
8342	45286	57.516733561527	11
8342	45522	57.731667279237	1
8342	45759	57.939655582906	2
8342	46091	58.239655582906	3
8342	46333	58.447983638489	1
8342	47498	59.265320190319	8
8342	48379	59.965768119902	6
8342	50010	61.171430024264	11
8342	50835	61.880656431097	6
8342	50917	61.915465150592	6
8342	51318	62.215575150592	2
8342	51323	62.218394293862	2
8342	51615	62.490871567184	6
8342	51886	62.690981567184	2
8342	53561	63.990981567184	12
8342	53946	64.295617196303	5
8342	54031	64.396096573349	3
8342	54279	64.60106505339	4
8342	54869	65.103965445879	7
8342	54871	65.104282952205	6
8342	54884	65.107395266051	4
8342	55682	65.609350412728	6
8342	56599	66.209350412728	5
8342	57252	66.809769861269	5
8342	57406	66.949437834332	3
8342	57637	67.156272393777	1
8342	57926	67.417875687448	5
8342	58043	67.52384590213	1
8342	58662	68.12384590213	5
8342	58816	68.22395590213	1
8342	59828	69.02395590213	7
8342	60386	69.533621245439	4
8342	60599	69.737510248537	1
8342	61429	70.438640623924	7
8342	62647	71.538640623924	11
8342	62731	71.611253379094	2
8342	63403	72.219306429678	6
8342	63749	72.519306429678	2
8342	64383	72.953235056537	3
8342	64458	73.022703216005	5
8342	64821	73.262491329334	2
8342	65431	73.668648822644	4
8342	66223	74.268648822644	5
8342	67165	75.077785596469	8
8342	67553	75.385824576829	2
8342	68009	75.846415272191	3
8342	68074	75.92805485703	6
8342	68103	75.935897968651	0
8342	68276	76.135897968651	1
8342	69625	77.244746432484	9
8342	70214	77.744746432484	4
8342	70479	77.945384017972	1
8342	70941	78.349651391643	3
8342	71761	79.051451882324	8
8342	72366	79.479891035919	2
8342	73145	80.080001035919	7
8342	73636	80.480001035919	3
8342	74056	80.78605909018	2
8342	74761	81.375545866237	5
8342	74779	81.386810457973	5
8342	75219	81.781440459491	4
8342	75852	82.282412068303	6
8342	76181	82.582412068303	2
8342	76710	83.074654374812	1
8342	76716	83.082903447546	4
8342	77386	83.69750497548	5
8342	77727	83.99761497548	3
8342	78555	84.69761497548	7
8342	80010	85.87663757745	11
8342	80464	86.182332887194	3
8342	80926	86.589100691274	3
8342	82250	87.689210691274	12
8342	82845	88.189210691274	4
8342	83246	88.495562669135	2
8342	83713	88.901799895664	4
8342	84118	89.201799895664	2
8342	84896	89.752639996205	3
8342	85190	89.95977131622	2
8342	85890	90.55977131622	5
8342	86512	91.060000295411	4
8342	87031	91.462298235483	3
8342	87101	91.543524579541	6
8342	88252	92.445228129206	10
8342	88829	92.940291701698	2
8342	89444	93.442536329353	2
8342	89879	93.845925539099	4
8342	90821	94.645925539099	8
8342	91882	95.563031268515	8
8342	91898	95.565085280209	0
8342	92540	96.065085280209	5
8342	93356	96.672157752968	7
8342	93629	96.872157752968	1
8342	94205	97.375246882008	4
8342	94553	97.680958985819	2
8342	94611	97.745237807695	3
8342	94626	97.752479084329	2
8342	94763	97.853377542209	1
8342	94971	98.053377542209	1
8342	95334	98.353487542209	3
8342	96457	99.253487542209	8
8342	96841	99.554672048497	2
8342	97886	100.363718856904	9
8342	98323	100.763718856904	4
8342	98682	101.071222051647	2
8342	99094	101.371332051647	3
8342	99428	101.671332051647	2
8342	99806	101.996231204011	2
8342	100023	102.200573419516	1
8342	100388	102.50890401033	3
8342	101629	103.50890401033	9
8342	102171	103.918197616699	3
8342	102463	104.147942318908	4
8342	102965	104.553774724221	3
8342	103047	104.626276200156	7
8342	103257	104.793724618688	4
8342	103330	104.869829829409	2
8342	103559	105.078407720713	2
8342	103918	105.378407720713	3
8342	104342	105.699594694479	1
8342	104881	106.104901038499	3
8342	104988	106.18591740067	9
8342	105031	106.208357364162	1
8342	105445	106.513389383728	3
8342	106357	107.313389383728	8
8342	106966	107.718340524154	3
8342	107001	107.753585418017	1
8342	107155	107.857997975561	4
8342	107177	107.865193631616	0
8342	107504	108.065193631616	1
8342	108740	109.073730003914	9
8342	109047	109.27839718511	2
8342	109506	109.67839718511	3
8342	109720	109.884925889793	1
8342	109986	110.094723135592	1
8342	110885	110.796648813028	7
8342	111689	111.396648813028	5
8342	112332	111.897561686528	4
8342	112707	112.199480455794	3
8342	112911	112.375456002979	6
8342	112946	112.392554450536	3
8342	113138	112.504243760354	2
8342	113454	112.710300721402	2
8342	113645	112.897315261951	4
8342	113779	112.998992584055	1
8342	115490	114.384517877785	10
8342	115762	114.584517877785	1
8342	116217	114.886779232738	1
8342	117301	115.922750880374	3
8342	117463	116.137070738852	1
8342	117766	116.486779232738	16
8342	117783	116.499973031164	2
8342	118146	116.806836924204	3
8342	118718	117.306836924204	4
8342	119657	118.016945022518	5
8342	119929	118.223616629942	1
8342	120003	118.313760602204	10
8342	120137	118.417845626739	1
8342	120359	118.617845626739	1
8342	120629	118.826719891536	1
8342	121108	119.236539656664	5
8342	121991	119.936539656664	6
8342	122258	120.15304388973	1
8342	122771	120.555754439831	4
8342	123097	120.777885995711	5
8342	123220	120.859774424212	2
8342	123237	120.864749512322	2
8342	123713	121.164859512322	3
8342	124804	122.036770028185	3
8342	126374	123.245744554229	13
8342	126421	123.264859512322	21
8342	126547	123.381643080829	5
8342	127285	123.987664793908	6
8342	128609	125.187664793908	11
8342	129145	125.591756700923	3
8342	129164	125.611211783438	2
8342	129445	125.793330669656	1
8342	130497	126.693440669656	10
8342	130772	126.899099326061	1
8342	131447	127.403762902921	4
8342	132107	128.024568493489	5
8342	132667	128.542478342912	6
8342	133574	129.343600271068	10
8342	133871	129.643600271068	2
8342	134129	129.856057783104	1
8342	134661	130.259633776641	5
8342	136117	131.459633776641	12
8342	136476	131.76755587971	2
8342	136775	131.978360769421	1
8342	136816	132.01246446942	1
8342	137021	132.182741277926	1
8342	137284	132.384670609436	1
8342	137487	132.520430135897	5
8342	137796	132.729476987021	2
8342	139403	134.429476987021	17
8342	139467	134.536189573519	3
8342	139705	134.832651244492	3
8342	139800	134.939632462966	3
8342	139823	134.965852529591	1
8343	222	20.20001	0.75
8343	865	21.20001	-0.125
8343	1114	21.40207066902	0.875
8343	1635	21.81622336327	0.5
8343	1991	22.110783392065	0.25
8343	2519	22.517085256806	0.5
8343	3097	22.920055272967	0.375
8343	3487	23.220055272967	0.75
8343	3600	23.320452443123	0.875
8343	3894	23.620452443123	0.75
8343	4933	24.522585451155	0
8343	5368	24.927350033096	0.625
8343	5516	25.04630293768	0.625
8343	5795	25.329187298548	-1
8343	5899	25.436186702137	0.5
8343	6112	25.555022634687	0.5
8343	6612	25.962005221641	0.5
8343	7120	26.467958277987	0.5
8343	7683	26.973141452622	0.5
8343	7699	26.998989061016	0.5
8343	8092	27.375057510448	0.625
8343	8395	27.578018143353	0.75
8343	8589	27.778018143353	0.875
8343	9240	28.2830753384	0.5
8343	9528	28.517147270968	0.5
8343	9803	28.692109103398	0.625
8343	10671	29.392219103398	0
8343	11058	29.792219103398	0.625
8343	11358	30.000413643404	0.625
8343	12974	31.376763485662	0.75
8343	13510	31.776763485662	0.625
8343	14011	32.178254385165	0.625
8343	14505	32.580169169668	0.5
8343	14507	32.583034563198	0.5
8343	14512	32.583134563198	0.625
8343	14801	32.883426659892	0.75
8343	14806	32.887057734842	0.75
8343	14809	32.888926432642	0.75
8343	14992	33.088054791688	0.875
8343	14996	33.089943655002	0.875
8343	15002	33.092448112897	0.875
8343	15326	33.392558112897	0.625
8343	16022	34.059632658579	1
8343	16702	34.659632658579	0.375
8343	16954	34.859742658579	0.625
8343	17552	35.359742658579	0.5
8343	18275	35.867425920062	0.5
8343	18627	36.079364416169	0.75
8343	19084	36.388715852837	0.75
8343	19091	36.392851366383	0.125
8343	19591	36.792961366383	0.5
8343	20046	37.092961366383	0.75
8343	20657	37.601657472023	0.5
8343	21442	38.309750334576	0.25
8343	23319	39.909860334576	-1.125
8343	24028	40.509860334576	0.375
8343	24582	41.011302267879	0.5
8343	24855	41.213707351291	0.75
8343	25335	41.520891482138	0.5
8343	25377	41.530129314398	0.5
8343	26834	42.635846561643	-0.375
8343	27301	43.026921648912	0.875
8343	27327	43.035846561643	0.625
8343	27583	43.244273065643	0.75
8343	28408	43.944273065643	0.25
8343	28838	44.346885247181	0.625
8343	29160	44.650690759543	0.75
8343	29623	44.95538744375	0.625
8343	30421	45.65538744375	0.25
8343	30690	45.860139579192	0.875
8343	30937	46.060249579192	0.75
8343	31480	46.560249579192	0.375
8343	32057	46.974565817672	0.625
8343	32441	47.276599605314	0.75
8343	33066	47.785094556591	0.5
8343	33913	48.2871544171	0.25
8343	34568	48.7871544171	0.375
8343	34802	49.000708794643	0.875
8343	35209	49.305877721842	0.75
8343	35272	49.353884371324	0.75
8343	35604	49.558423033422	0.75
8343	36507	50.258423033422	0
8343	36910	50.567618044363	0.75
8343	37240	50.775735374826	0.75
8343	38401	51.675735374826	-0.375
8343	39250	52.380868033146	0.25
8343	39379	52.502854154021	0.5
8343	39999	53.005824554904	0.375
8343	40090	53.089221423977	0.25
8343	40411	53.370595763849	0.625
8343	40579	53.495268735839	0.625
8343	41037	53.896750600531	0.5
8343	42591	55.196750600531	-0.625
8343	42849	55.404196585223	0.875
8343	43304	55.810362292241	0.5
8343	43721	56.210362292241	0.625
8343	43969	56.416232092887	0.75
8343	44282	56.674787316469	0.625
8343	44772	57.078656476258	0.5
8343	45033	57.281485184227	0.75
8343	45281	57.508248400027	0
8343	45286	57.516733561527	-0.375
8343	45522	57.731667279237	0.875
8343	45759	57.939655582906	0.75
8343	46091	58.239655582906	0.625
8343	46333	58.447983638489	0.875
8343	47498	59.265320190319	0
8343	48379	59.965768119902	0.25
8343	50010	61.171430024264	-0.375
8343	50835	61.880656431097	0.25
8343	50917	61.915465150592	0.25
8343	51318	62.215575150592	0.75
8343	51323	62.218394293862	0.75
8343	51615	62.490871567184	0.25
8343	51886	62.690981567184	0.75
8343	53561	63.990981567184	-0.5
8343	53946	64.295617196303	0.375
8343	54031	64.396096573349	0.625
8343	54279	64.60106505339	0.5
8343	54869	65.103965445879	0.125
8343	54871	65.104282952205	0.25
8343	54884	65.107395266051	0.5
8343	55682	65.609350412728	0.25
8343	56599	66.209350412728	0.375
8343	57252	66.809769861269	0.375
8343	57406	66.949437834332	0.625
8343	57637	67.156272393777	0.875
8343	57926	67.417875687448	0.375
8343	58043	67.52384590213	0.875
8343	58662	68.12384590213	0.375
8343	58816	68.22395590213	0.875
8343	59828	69.02395590213	0.125
8343	60386	69.533621245439	0.5
8343	60599	69.737510248537	0.875
8343	61429	70.438640623924	0.125
8343	62647	71.538640623924	-0.375
8343	62731	71.611253379094	0.75
8343	63403	72.219306429678	0.25
8343	63749	72.519306429678	0.75
8343	64383	72.953235056537	0.625
8343	64458	73.022703216005	0.375
8343	64821	73.262491329334	0.75
8343	65431	73.668648822644	0.5
8343	66223	74.268648822644	0.375
8343	67165	75.077785596469	0
8343	67553	75.385824576829	0.75
8343	68009	75.846415272191	0.625
8343	68074	75.92805485703	0.25
8343	68103	75.935897968651	1
8343	68276	76.135897968651	0.875
8343	69625	77.244746432484	-0.125
8343	70214	77.744746432484	0.5
8343	70479	77.945384017972	0.875
8343	70941	78.349651391643	0.625
8343	71761	79.051451882324	0
8343	72366	79.479891035919	0.75
8343	73145	80.080001035919	0.125
8343	73636	80.480001035919	0.625
8343	74056	80.78605909018	0.75
8343	74761	81.375545866237	0.375
8343	74779	81.386810457973	0.375
8343	75219	81.781440459491	0.5
8343	75852	82.282412068303	0.25
8343	76181	82.582412068303	0.75
8343	76710	83.074654374812	0.875
8343	76716	83.082903447546	0.5
8343	77386	83.69750497548	0.375
8343	77727	83.99761497548	0.625
8343	78555	84.69761497548	0.125
8343	80010	85.87663757745	-0.375
8343	80464	86.182332887194	0.625
8343	80926	86.589100691274	0.625
8343	82250	87.689210691274	-0.5
8343	82845	88.189210691274	0.5
8343	83246	88.495562669135	0.75
8343	83713	88.901799895664	0.5
8343	84118	89.201799895664	0.75
8343	84896	89.752639996205	0.625
8343	85190	89.95977131622	0.75
8343	85890	90.55977131622	0.375
8343	86512	91.060000295411	0.5
8343	87031	91.462298235483	0.625
8343	87101	91.543524579541	0.25
8343	88252	92.445228129206	-0.25
8343	88829	92.940291701698	0.75
8343	89444	93.442536329353	0.75
8343	89879	93.845925539099	0.5
8343	90821	94.645925539099	0
8343	91882	95.563031268515	0
8343	91898	95.565085280209	1
8343	92540	96.065085280209	0.375
8343	93356	96.672157752968	0.125
8343	93629	96.872157752968	0.875
8343	94205	97.375246882008	0.5
8343	94553	97.680958985819	0.75
8343	94611	97.745237807695	0.625
8343	94626	97.752479084329	0.75
8343	94763	97.853377542209	0.875
8343	94971	98.053377542209	0.875
8343	95334	98.353487542209	0.625
8343	96457	99.253487542209	0
8343	96841	99.554672048497	0.75
8343	97886	100.363718856904	-0.125
8343	98323	100.763718856904	0.5
8343	98682	101.071222051647	0.75
8343	99094	101.371332051647	0.625
8343	99428	101.671332051647	0.75
8343	99806	101.996231204011	0.75
8343	100023	102.200573419516	0.875
8343	100388	102.50890401033	0.625
8343	101629	103.50890401033	-0.125
8343	102171	103.918197616699	0.625
8343	102463	104.147942318908	0.5
8343	102965	104.553774724221	0.625
8343	103047	104.626276200156	0.125
8343	103257	104.793724618688	0.5
8343	103330	104.869829829409	0.75
8343	103559	105.078407720713	0.75
8343	103918	105.378407720713	0.625
8343	104342	105.699594694479	0.875
8343	104881	106.104901038499	0.625
8343	104988	106.18591740067	-0.125
8343	105031	106.208357364162	0.875
8343	105445	106.513389383728	0.625
8343	106357	107.313389383728	0
8343	106966	107.718340524154	0.625
8343	107001	107.753585418017	0.875
8343	107155	107.857997975561	0.5
8343	107177	107.865193631616	1
8343	107504	108.065193631616	0.875
8343	108740	109.073730003914	-0.125
8343	109047	109.27839718511	0.75
8343	109506	109.67839718511	0.625
8343	109720	109.884925889793	0.875
8343	109986	110.094723135592	0.875
8343	110885	110.796648813028	0.125
8343	111689	111.396648813028	0.375
8343	112332	111.897561686528	0.5
8343	112707	112.199480455794	0.625
8343	112911	112.375456002979	0.25
8343	112946	112.392554450536	0.625
8343	113138	112.504243760354	0.75
8343	113454	112.710300721402	0.75
8343	113645	112.897315261951	0.5
8343	113779	112.998992584055	0.875
8343	115490	114.384517877785	-0.25
8343	115762	114.584517877785	0.875
8343	116217	114.886779232738	0.875
8343	117301	115.922750880374	0.625
8343	117463	116.137070738852	0.875
8343	117766	116.486779232738	-1
8343	117783	116.499973031164	0.75
8343	118146	116.806836924204	0.625
8343	118718	117.306836924204	0.5
8343	119657	118.016945022518	0.375
8343	119929	118.223616629942	0.875
8343	120003	118.313760602204	-0.25
8343	120137	118.417845626739	0.875
8343	120359	118.617845626739	0.875
8343	120629	118.826719891536	0.875
8343	121108	119.236539656664	0.375
8343	121991	119.936539656664	0.25
8343	122258	120.15304388973	0.875
8343	122771	120.555754439831	0.5
8343	123097	120.777885995711	0.375
8343	123220	120.859774424212	0.75
8343	123237	120.864749512322	0.75
8343	123713	121.164859512322	0.625
8343	124804	122.036770028185	0.625
8343	126374	123.245744554229	-0.625
8343	126421	123.264859512322	-1.625
8343	126547	123.381643080829	0.375
8343	127285	123.987664793908	0.25
8343	128609	125.187664793908	-0.375
8343	129145	125.591756700923	0.625
8343	129164	125.611211783438	0.75
8343	129445	125.793330669656	0.875
8343	130497	126.693440669656	-0.25
8343	130772	126.899099326061	0.875
8343	131447	127.403762902921	0.5
8343	132107	128.024568493489	0.375
8343	132667	128.542478342912	0.25
8343	133574	129.343600271068	-0.25
8343	133871	129.643600271068	0.75
8343	134129	129.856057783104	0.875
8343	134661	130.259633776641	0.375
8343	136117	131.459633776641	-0.5
8343	136476	131.76755587971	0.75
8343	136775	131.978360769421	0.875
8343	136816	132.01246446942	0.875
8343	137021	132.182741277926	0.875
8343	137284	132.384670609436	0.875
8343	137487	132.520430135897	0.375
8343	137796	132.729476987021	0.75
8343	139403	134.429476987021	-1.125
8343	139467	134.536189573519	0.625
8343	139705	134.832651244492	0.625
8343	139800	134.939632462966	0.625
8343	139823	134.965852529591	0.875
8344	222	20.20001	0.2
8344	865	21.20001	1
8344	1114	21.40207066902	0.2
8344	1635	21.81622336327	0.5
8344	1991	22.110783392065	0.7
8344	2519	22.517085256806	0.4
8344	3097	22.920055272967	0.4
8344	3487	23.220055272967	0.3
8344	3600	23.320452443123	0.1
8344	3894	23.620452443123	0.3
8344	4933	24.522585451155	0.9
8344	5368	24.927350033096	0.4
8344	5516	25.04630293768	0.4
8344	5795	25.329187298548	1.5
8344	5899	25.436186702137	0.5
8344	6112	25.555022634687	0.5
8344	6612	25.962005221641	0.4
8344	7120	26.467958277987	0.5
8344	7683	26.973141452622	0.5
8344	7699	26.998989061016	0.5
8344	8092	27.375057510448	0.4
8344	8395	27.578018143353	0.2
8344	8589	27.778018143353	0.2
8344	9240	28.2830753384	0.5
8344	9528	28.517147270968	0.5
8344	9803	28.692109103398	0.4
8344	10671	29.392219103398	0.7
8344	11058	29.792219103398	0.4
8344	11358	30.000413643404	0.2
8344	12974	31.376763485662	0.2
8344	13510	31.776763485662	0.4
8344	14011	32.178254385165	0.4
8344	14505	32.580169169668	0.4
8344	14507	32.583034563198	0.4
8344	14512	32.583134563198	0.4
8344	14801	32.883426659892	0.3
8344	14806	32.887057734842	0.3
8344	14809	32.888926432642	0.3
8344	14992	33.088054791688	0.2
8344	14996	33.089943655002	0.2
8344	15002	33.092448112897	0.2
8344	15326	33.392558112897	0.3
8344	16022	34.059632658579	0
8344	16702	34.659632658579	0.6
8344	16954	34.859742658579	0.2
8344	17552	35.359742658579	0.5
8344	18275	35.867425920062	0.5
8344	18627	36.079364416169	0.2
8344	19084	36.388715852837	0.3
8344	19091	36.392851366383	0.8
8344	19591	36.792961366383	0.4
8344	20046	37.092961366383	0.3
8344	20657	37.601657472023	0.5
8344	21442	38.309750334576	0.7
8344	23319	39.909860334576	1.6
8344	24028	40.509860334576	0.6
8344	24582	41.011302267879	0.5
8344	24855	41.213707351291	0.3
8344	25335	41.520891482138	0.5
8344	25377	41.530129314398	0.5
8344	26834	42.635846561643	1.1
8344	27301	43.026921648912	0.2
8344	27327	43.035846561643	0.4
8344	27583	43.244273065643	0.2
8344	28408	43.944273065643	0.7
8344	28838	44.346885247181	0.4
8344	29160	44.650690759543	0.3
8344	29623	44.95538744375	0.3
8344	30421	45.65538744375	0.7
8344	30690	45.860139579192	0.2
8344	30937	46.060249579192	0.2
8344	31480	46.560249579192	0.5
8344	32057	46.974565817672	0.4
8344	32441	47.276599605314	0.3
8344	33066	47.785094556591	0.5
8344	33913	48.2871544171	0.5
8344	34568	48.7871544171	0.5
8344	34802	49.000708794643	0.2
8344	35209	49.305877721842	0.3
8344	35272	49.353884371324	0.3
8344	35604	49.558423033422	0.2
8344	36507	50.258423033422	0.7
8344	36910	50.567618044363	0.3
8344	37240	50.775735374826	0.2
8344	38401	51.675735374826	0.9
8344	39250	52.380868033146	0.7
8344	39379	52.502854154021	0.5
8344	39999	53.005824554904	0.5
8344	40090	53.089221423977	0.7
8344	40411	53.370595763849	0.4
8344	40579	53.495268735839	0.4
8344	41037	53.896750600531	0.4
8344	42591	55.196750600531	1.3
8344	42849	55.404196585223	0.2
8344	43304	55.810362292241	0.4
8344	43721	56.210362292241	0.4
8344	43969	56.416232092887	0.2
8344	44282	56.674787316469	0.4
8344	44772	57.078656476258	0.4
8344	45033	57.281485184227	0.2
8344	45281	57.508248400027	0.8
8344	45286	57.516733561527	1.1
8344	45522	57.731667279237	0.2
8344	45759	57.939655582906	0.2
8344	46091	58.239655582906	0.3
8344	46333	58.447983638489	0.2
8344	47498	59.265320190319	0.8
8344	48379	59.965768119902	0.7
8344	50010	61.171430024264	1.2
8344	50835	61.880656431097	0.7
8344	50917	61.915465150592	0.7
8344	51318	62.215575150592	0.3
8344	51323	62.218394293862	0.3
8344	51615	62.490871567184	0.6
8344	51886	62.690981567184	0.2
8344	53561	63.990981567184	1.3
8344	53946	64.295617196303	0.5
8344	54031	64.396096573349	0.4
8344	54279	64.60106505339	0.5
8344	54869	65.103965445879	0.8
8344	54871	65.104282952205	0.7
8344	54884	65.107395266051	0.5
8344	55682	65.609350412728	0.5
8344	56599	66.209350412728	0.6
8344	57252	66.809769861269	0.6
8344	57406	66.949437834332	0.4
8344	57637	67.156272393777	0.2
8344	57926	67.417875687448	0.6
8344	58043	67.52384590213	0.1
8344	58662	68.12384590213	0.6
8344	58816	68.22395590213	0.1
8344	59828	69.02395590213	0.8
8344	60386	69.533621245439	0.5
8344	60599	69.737510248537	0.2
8344	61429	70.438640623924	0.7
8344	62647	71.538640623924	1.1
8344	62731	71.611253379094	0.3
8344	63403	72.219306429678	0.6
8344	63749	72.519306429678	0.3
8344	64383	72.953235056537	0.4
8344	64458	73.022703216005	0.5
8344	64821	73.262491329334	0.3
8344	65431	73.668648822644	0.4
8344	66223	74.268648822644	0.6
8344	67165	75.077785596469	0.8
8344	67553	75.385824576829	0.3
8344	68009	75.846415272191	0.4
8344	68074	75.92805485703	0.7
8344	68103	75.935897968651	0
8344	68276	76.135897968651	0.2
8344	69625	77.244746432484	0.8
8344	70214	77.744746432484	0.5
8344	70479	77.945384017972	0.2
8344	70941	78.349651391643	0.4
8344	71761	79.051451882324	0.7
8344	72366	79.479891035919	0.3
8344	73145	80.080001035919	0.6
8344	73636	80.480001035919	0.4
8344	74056	80.78605909018	0.3
8344	74761	81.375545866237	0.6
8344	74779	81.386810457973	0.6
8344	75219	81.781440459491	0.4
8344	75852	82.282412068303	0.5