version 2
run Stability-149-20130528-01:00:40-21385
attr configname Stability
attr datetime 20130528-01:00:40
attr experiment Stability
attr inifile omnetpp.ini
attr iterationvars $0=1e-8
attr iterationvars2 "$0=1e-8, $repetition=9"
attr measurement $0=1e-8
attr network Network
attr processid 21385
attr repetition 9
attr replication #9
attr resultdir results
attr runnumber 149
attr seedset 149

vector 14549  Network.churner  inGoingSizeSig:vector  ETV
vector 14471  Network.dyn_peer[6]  lookupHopsSig:vector  ETV
vector 14472  Network.dyn_peer[6]  lookupStabilitySig:vector  ETV
vector 14473  Network.dyn_peer[6]  lookupTimeSig:vector  ETV
vector 14486  Network.dyn_peer[11]  lookupHopsSig:vector  ETV
vector 14487  Network.dyn_peer[11]  lookupStabilitySig:vector  ETV
vector 14488  Network.dyn_peer[11]  lookupTimeSig:vector  ETV
vector 14495  Network.dyn_peer[14]  lookupHopsSig:vector  ETV
vector 14496  Network.dyn_peer[14]  lookupStabilitySig:vector  ETV
vector 14497  Network.dyn_peer[14]  lookupTimeSig:vector  ETV
vector 14510  Network.dyn_peer[19]  lookupHopsSig:vector  ETV
vector 14511  Network.dyn_peer[19]  lookupStabilitySig:vector  ETV
vector 14512  Network.dyn_peer[19]  lookupTimeSig:vector  ETV
vector 14513  Network.dyn_peer[20]  lookupHopsSig:vector  ETV
vector 14514  Network.dyn_peer[20]  lookupStabilitySig:vector  ETV
vector 14515  Network.dyn_peer[20]  lookupTimeSig:vector  ETV
vector 14516  Network.dyn_peer[21]  lookupHopsSig:vector  ETV
vector 14517  Network.dyn_peer[21]  lookupStabilitySig:vector  ETV
vector 14518  Network.dyn_peer[21]  lookupTimeSig:vector  ETV
vector 14522  Network.dyn_peer[23]  lookupHopsSig:vector  ETV
vector 14523  Network.dyn_peer[23]  lookupStabilitySig:vector  ETV
vector 14524  Network.dyn_peer[23]  lookupTimeSig:vector  ETV
vector 14453  Network.dyn_peer[0]  lookupHopsSig:vector  ETV
vector 14454  Network.dyn_peer[0]  lookupStabilitySig:vector  ETV
vector 14455  Network.dyn_peer[0]  lookupTimeSig:vector  ETV
vector 14474  Network.dyn_peer[7]  lookupHopsSig:vector  ETV
vector 14475  Network.dyn_peer[7]  lookupStabilitySig:vector  ETV
vector 14476  Network.dyn_peer[7]  lookupTimeSig:vector  ETV
vector 14489  Network.dyn_peer[12]  lookupHopsSig:vector  ETV
vector 14490  Network.dyn_peer[12]  lookupStabilitySig:vector  ETV
vector 14491  Network.dyn_peer[12]  lookupTimeSig:vector  ETV
vector 14501  Network.dyn_peer[16]  lookupHopsSig:vector  ETV
vector 14502  Network.dyn_peer[16]  lookupStabilitySig:vector  ETV
vector 14503  Network.dyn_peer[16]  lookupTimeSig:vector  ETV
vector 14528  Network.dyn_peer[25]  lookupHopsSig:vector  ETV
vector 14529  Network.dyn_peer[25]  lookupStabilitySig:vector  ETV
vector 14530  Network.dyn_peer[25]  lookupTimeSig:vector  ETV
vector 14537  Network.dyn_peer[28]  lookupHopsSig:vector  ETV
vector 14538  Network.dyn_peer[28]  lookupStabilitySig:vector  ETV
vector 14539  Network.dyn_peer[28]  lookupTimeSig:vector  ETV
vector 14543  Network.dyn_peer[30]  lookupHopsSig:vector  ETV
vector 14544  Network.dyn_peer[30]  lookupStabilitySig:vector  ETV
vector 14545  Network.dyn_peer[30]  lookupTimeSig:vector  ETV
vector 14456  Network.dyn_peer[1]  lookupHopsSig:vector  ETV
vector 14457  Network.dyn_peer[1]  lookupStabilitySig:vector  ETV
vector 14458  Network.dyn_peer[1]  lookupTimeSig:vector  ETV
vector 14465  Network.dyn_peer[4]  lookupHopsSig:vector  ETV
vector 14466  Network.dyn_peer[4]  lookupStabilitySig:vector  ETV
vector 14467  Network.dyn_peer[4]  lookupTimeSig:vector  ETV
vector 14492  Network.dyn_peer[13]  lookupHopsSig:vector  ETV
vector 14493  Network.dyn_peer[13]  lookupStabilitySig:vector  ETV
vector 14494  Network.dyn_peer[13]  lookupTimeSig:vector  ETV
vector 14504  Network.dyn_peer[17]  lookupHopsSig:vector  ETV
vector 14505  Network.dyn_peer[17]  lookupStabilitySig:vector  ETV
vector 14506  Network.dyn_peer[17]  lookupTimeSig:vector  ETV
vector 14519  Network.dyn_peer[22]  lookupHopsSig:vector  ETV
vector 14520  Network.dyn_peer[22]  lookupStabilitySig:vector  ETV
vector 14521  Network.dyn_peer[22]  lookupTimeSig:vector  ETV
vector 14525  Network.dyn_peer[24]  lookupHopsSig:vector  ETV
vector 14526  Network.dyn_peer[24]  lookupStabilitySig:vector  ETV
vector 14527  Network.dyn_peer[24]  lookupTimeSig:vector  ETV
vector 14531  Network.dyn_peer[26]  lookupHopsSig:vector  ETV
vector 14532  Network.dyn_peer[26]  lookupStabilitySig:vector  ETV
vector 14533  Network.dyn_peer[26]  lookupTimeSig:vector  ETV
vector 14483  Network.dyn_peer[10]  lookupHopsSig:vector  ETV
vector 14484  Network.dyn_peer[10]  lookupStabilitySig:vector  ETV
vector 14485  Network.dyn_peer[10]  lookupTimeSig:vector  ETV
vector 14498  Network.dyn_peer[15]  lookupHopsSig:vector  ETV
vector 14499  Network.dyn_peer[15]  lookupStabilitySig:vector  ETV
vector 14500  Network.dyn_peer[15]  lookupTimeSig:vector  ETV
vector 14534  Network.dyn_peer[27]  lookupHopsSig:vector  ETV
vector 14535  Network.dyn_peer[27]  lookupStabilitySig:vector  ETV
vector 14536  Network.dyn_peer[27]  lookupTimeSig:vector  ETV
vector 14540  Network.dyn_peer[29]  lookupHopsSig:vector  ETV
vector 14541  Network.dyn_peer[29]  lookupStabilitySig:vector  ETV
vector 14542  Network.dyn_peer[29]  lookupTimeSig:vector  ETV
vector 14459  Network.dyn_peer[2]  lookupHopsSig:vector  ETV
vector 14460  Network.dyn_peer[2]  lookupStabilitySig:vector  ETV
vector 14461  Network.dyn_peer[2]  lookupTimeSig:vector  ETV
vector 14462  Network.dyn_peer[3]  lookupHopsSig:vector  ETV
vector 14463  Network.dyn_peer[3]  lookupStabilitySig:vector  ETV
vector 14464  Network.dyn_peer[3]  lookupTimeSig:vector  ETV
vector 14468  Network.dyn_peer[5]  lookupHopsSig:vector  ETV
vector 14469  Network.dyn_peer[5]  lookupStabilitySig:vector  ETV
vector 14470  Network.dyn_peer[5]  lookupTimeSig:vector  ETV
vector 14480  Network.dyn_peer[9]  lookupHopsSig:vector  ETV
vector 14481  Network.dyn_peer[9]  lookupStabilitySig:vector  ETV
vector 14482  Network.dyn_peer[9]  lookupTimeSig:vector  ETV
vector 14507  Network.dyn_peer[18]  lookupHopsSig:vector  ETV
vector 14508  Network.dyn_peer[18]  lookupStabilitySig:vector  ETV
vector 14509  Network.dyn_peer[18]  lookupTimeSig:vector  ETV
vector 14546  Network.dyn_peer[31]  lookupHopsSig:vector  ETV
vector 14547  Network.dyn_peer[31]  lookupStabilitySig:vector  ETV
vector 14548  Network.dyn_peer[31]  lookupTimeSig:vector  ETV
vector 14477  Network.dyn_peer[8]  lookupHopsSig:vector  ETV
vector 14478  Network.dyn_peer[8]  lookupStabilitySig:vector  ETV
vector 14479  Network.dyn_peer[8]  lookupTimeSig:vector  ETV
14453	155	20.10000000001	1
14453	332	20.40000000001	2
14453	515	20.701517617118	2
14453	1358	21.607421616061	4
14453	2008	22.207421616061	5
14453	2151	22.31280094186	1
14453	2696	22.820272983007	1
14453	2783	22.91280094186	5
14453	3027	23.118962414518	2
14453	3895	23.918962414518	8
14453	4704	24.627280991163	7
14453	5169	25.137045671536	4
14453	5287	25.247913934272	4
14453	5724	25.643792678617	4
14453	5985	25.84816318524	7
14453	7015	26.757483953372	9
14453	7630	27.257483953372	4
14453	7919	27.466498098367	1
14453	8096	27.665046143441	6
14453	8339	27.873035583566	2
14453	8898	28.473035583566	5
14453	9195	28.777763448979	2
14453	10111	29.580730674054	7
14453	10625	30.097307195123	4
14453	10957	30.401216100805	3
14453	11134	30.581006428866	11
14453	11274	30.70187825821	2
14453	11612	31.008002763194	4
14453	12074	31.408002763194	4
14453	12240	31.513314555903	1
14453	12455	31.716979072977	1
14453	12990	32.119991836783	4
14453	13386	32.426925081966	2
14453	13470	32.493142675003	8
14453	13730	32.689795492142	3
14453	13763	32.701276984251	1
14453	13767	32.702997988185	1
14453	14396	33.203097988195	5
14453	15154	33.803097988195	5
14453	16985	35.303197988205	19
14453	18335	36.181627104552	7
14453	19433	37.081627104552	8
14453	20062	37.590254943421	4
14453	20532	37.955146773799	6
14453	20579	37.998013929271	4
14453	21936	39.206178169232	13
14453	23387	40.442263145676	8
14453	23707	40.706178169232	16
14453	23924	40.8569692914	3
14453	24213	41.060214312594	6
14453	24398	41.21725986398	4
14453	24545	41.32090884045	1
14453	25365	41.920923309777	5
14453	26098	42.522105447397	5
14453	26396	42.727349761085	1
14453	27050	43.228384837218	7
14453	28228	44.328384837218	12
14453	28757	44.730548591072	3
14453	29716	45.530554300167	7
14453	30581	46.150974842215	2
14453	30860	46.360860157751	1
14453	32029	47.409446286982	2
14453	32229	47.567350869686	12
14453	32604	47.867450869696	3
14453	33178	48.367450869696	4
14453	33445	48.567550869706	2
14453	34218	49.167550869706	5
14453	34557	49.408328105012	1
14453	34948	49.709029863296	2
14453	35631	50.282306173948	2
14453	35697	50.316924086686	6
14453	35757	50.380132499146	2
14453	36052	50.586433853512	3
14453	37087	51.386433853512	7
14453	37479	51.694845294696	2
14453	37869	52.007259226454	3
14453	38091	52.184038441373	4
14453	38492	52.468241749339	3
14453	38536	52.493740036537	2
14453	38575	52.512192306347	6
14453	38748	52.674007849179	1
14453	38750	52.675525624717	8
14453	39911	53.477332261051	9
14453	40492	53.977332261051	4
14453	40745	54.179316048477	1
14453	41533	54.887110333779	6
14453	41753	55.070149655667	7
14453	41894	55.188295558913	2
14453	42469	55.672684845832	5
14453	43130	56.17839001509	5
14453	44213	57.101309631104	4
14453	44633	57.401409631114	3
14453	45391	58.001409631114	6
14453	45699	58.310201295342	2
14453	46118	58.716061086036	4
14453	46353	58.916061086036	1
14453	47129	59.521577549779	5
14453	47165	59.56110318653	5
14453	47327	59.6626668468	1
14453	48004	60.26719687082	5
14453	48213	60.405857614301	5
14453	48239	60.470255013128	2
14453	48530	60.709318886607	2
14453	48686	60.874612106032	5
14453	48969	61.083868448255	2
14453	49316	61.383868448255	2
14453	49726	61.691614488037	2
14453	49729	61.692905715326	2
14453	49989	61.894887198805	1
14453	50015	61.898815944485	1
14453	50030	61.90029113074	0
14453	50503	62.304911962059	3
14453	50605	62.40029113074	4
14453	50770	62.506501565516	1
14453	50893	62.612380227435	2
14453	51262	62.914962429346	2
14453	51490	63.150718072392	6
14453	51713	63.38907980151	2
14453	51896	63.520097058599	9
14453	51918	63.560358348295	3
14453	52542	64.068427035447	5
14453	53135	64.568427035447	4
14453	53738	65.071239674647	4
14453	54479	65.677148130649	6
14453	55157	66.27747732722	5
14453	55569	66.69658553768	3
14453	55967	67.001691733306	3
14453	56911	67.662221479833	1
14453	57452	68.062221479833	3
14453	57785	68.279070739753	1
14453	59007	69.386544501159	11
14453	59098	69.465626976553	12
14453	59784	70.075799158822	7
14453	60202	70.475799158822	3
14453	60515	70.769193476826	3
14453	61247	71.374205167104	8
14453	62226	72.486592673407	4
14453	62302	72.574205167104	11
14453	62419	72.695393018654	1
14453	62659	72.895493018664	2
14453	63228	73.395493018664	4
14453	63395	73.503604402241	1
14453	64134	74.206681519224	7
14453	64433	74.509103982778	10
14453	64471	74.515100662737	2
14453	64993	75.018828905002	5
14453	66327	76.218828905002	12
14453	66974	76.731398873231	4
14453	67309	77.037937566316	2
14453	67509	77.238885619211	2
14453	68373	77.938885619211	6
14453	68431	78.002730431179	5
14453	69004	78.440349176669	4
14453	69160	78.608660151834	5
14453	69233	78.644909654563	1
14453	69304	78.718709973801	5
14453	69731	79.126107679257	4
14453	70404	79.626107679257	4
14453	70928	80.031840552113	3
14453	71891	80.8322631098	7
14453	71943	80.850756385161	7
14453	72203	81.036383796277	1
14453	72243	81.054615697979	2
14453	72518	81.263951627941	1
14453	72733	81.451712916939	5
14453	72823	81.54051884834	4
14453	72972	81.644782711042	1
14453	74020	82.544782711042	9
14453	74434	82.961798089731	3
14453	74771	83.269850110811	2
14453	75265	83.772061703784	6
14453	75796	84.272061703784	4
14453	76021	84.472161703794	2
14453	76361	84.772161703794	2
14453	76633	84.976789501777	1
14453	77034	85.279589338388	3
14453	77294	85.479589338388	1
14453	78424	86.409282114774	8
14453	78434	86.411917897023	4
14453	79082	87.019329044844	5
14453	79230	87.17057944731	4
14453	79293	87.210642180394	8
14453	79671	87.51635235259	2
14453	79786	87.62845077651	6
14453	80507	88.228635553989	6
14453	80969	88.618003643178	1
14453	81223	88.820868939747	1
14453	82166	89.629392404427	8
14453	82578	90.029392404427	3
14453	82957	90.339788761882	2
14453	82970	90.342783243115	2
14453	83471	90.746282808253	3
14453	83473	90.747924278586	3
14453	83928	91.155945760978	3
14453	83932	91.159881349499	3
14453	84155	91.360033703779	1
14453	84157	91.360220650953	1
14453	84171	91.360320650963	0
14453	85244	92.160320650963	7
14453	85875	92.662964679351	5
14453	86213	92.920681539062	4
14453	86860	93.522687837917	5
14453	88838	95.122787837927	18
14453	89561	95.722787837927	5
14453	90122	96.233517635187	4
14453	90859	96.942234195726	7
14453	91253	97.342234195726	3
14453	91637	97.74366166184	3
14453	92050	98.14997989102	3
14453	92535	98.650767853757	4
14453	93432	99.459924718352	7
14453	93697	99.665909319977	2
14453	94084	99.965909319977	2
14453	94258	100.098960563347	2
14453	94432	100.254141620359	1
14453	95132	100.860802014748	7
14453	95639	101.370512088281	4
14453	95889	101.578041722718	1
14453	96318	101.982141013568	3
14453	97731	103.082241013578	11
14453	98224	103.482241013578	3
14453	98476	103.68346942003	1
14453	98857	104.007046006987	2
14453	99364	104.409082157883	3
14453	99607	104.595153015431	3
14453	99910	104.80265921922	2
14453	100476	105.30265921922	5
14453	100664	105.513238800975	1
14453	101304	106.11335038416	6
14453	101636	106.41335038416	2
14453	102086	106.815157815885	4
14453	102321	107.02224327538	1
14453	102433	107.123594834797	7
14453	102563	107.224760117325	1
14453	103006	107.624760117325	3
14453	103799	108.233841557255	5
14453	104049	108.437701328079	1
14453	105539	109.742410685317	14
14453	105888	110.042410685317	2
14453	106636	110.646177070686	5
14453	107385	111.354361554347	6
14453	107850	111.756004209544	3
14453	108792	112.462277430035	8
14453	109060	112.662277430035	1
14453	109301	112.866718391978	2
14453	109578	113.073605319869	2
14453	109820	113.268402307798	3
14453	109858	113.273910055334	1
14453	110562	113.874010055344	6
14453	111302	114.474010055344	6
14453	112791	115.675030259451	11
14453	112795	115.678101198055	11
14453	113778	116.378418168089	6
14453	113780	116.379650198524	6
14453	114348	116.779750198534	5
14453	114838	117.179750198534	4
14453	115597	117.810217262565	2
14453	115777	117.986863680231	7
14453	115843	118.022785817577	1
14453	116523	118.532056914914	5
14453	117362	119.232056914914	6
14453	118156	119.841858697543	5
14453	118960	120.545252292158	7
14453	119479	121.062994108763	3
14453	119705	121.353398602723	7
14453	120392	121.957790335395	6
14453	121025	122.557790335395	5
14453	121480	122.967605123181	3
14453	121848	123.371644224667	3
14453	122347	123.876401661625	4
14453	122487	123.991733052005	4
14453	122507	124.036582633602	4
14453	122575	124.080898602651	1
14453	122697	124.199391139222	1
14453	122842	124.344585975343	2
14453	122950	124.3889472787	3
14453	123100	124.547462035612	1
14453	123896	125.157216250835	7
14453	124382	125.557216250835	3
14453	124797	125.86384340413	2
14453	124898	125.954980476792	1
14453	125165	126.169520042222	2
14453	126083	126.976985254004	8
14453	126875	127.676985254004	6
14453	127146	127.898134475259	3
14453	127395	128.103241404697	2
14453	127699	128.403241404697	2
14453	128197	128.809021355728	4
14453	128570	129.109021355728	2
14453	128971	129.409121355738	3
14453	129474	129.809121355738	4
14453	129701	130.011913764716	1
14453	129719	130.018463051031	4
14453	130621	130.718563051041	8
14453	130912	130.918563051041	1
14453	131133	131.120483094748	1
14453	131967	131.830447787349	6
14453	132126	131.9380264356	6
14453	132420	132.144436228728	2
14453	133138	132.744436228728	5
14453	133409	132.951152043671	1
14453	133980	133.460276354423	5
14453	134109	133.631669232589	5
14453	135015	134.362208608621	9
14453	135084	134.450837603507	7
14453	135305	134.615476104349	7
14453	135370	134.669776560026	1
14453	136149	135.27377447844	6
14453	136474	135.57377447844	2
14454	155	20.10000000001	0.875
14454	332	20.40000000001	0.75
14454	515	20.701517617118	0.75
14454	1358	21.607421616061	0.5
14454	2008	22.207421616061	0.375
14454	2151	22.31280094186	0.875
14454	2696	22.820272983007	0.875
14454	2783	22.91280094186	0.375
14454	3027	23.118962414518	0.75
14454	3895	23.918962414518	0
14454	4704	24.627280991163	0.125
14454	5169	25.137045671536	0.5
14454	5287	25.247913934272	0.5
14454	5724	25.643792678617	0.5
14454	5985	25.84816318524	0.125
14454	7015	26.757483953372	-0.125
14454	7630	27.257483953372	0.5
14454	7919	27.466498098367	0.875
14454	8096	27.665046143441	0.25
14454	8339	27.873035583566	0.75
14454	8898	28.473035583566	0.375
14454	9195	28.777763448979	0.75
14454	10111	29.580730674054	0.125
14454	10625	30.097307195123	0.5
14454	10957	30.401216100805	0.625
14454	11134	30.581006428866	-0.375
14454	11274	30.70187825821	0.75
14454	11612	31.008002763194	0.5
14454	12074	31.408002763194	0.5
14454	12240	31.513314555903	0.875
14454	12455	31.716979072977	0.875
14454	12990	32.119991836783	0.5
14454	13386	32.426925081966	0.75
14454	13470	32.493142675003	0
14454	13730	32.689795492142	0.625
14454	13763	32.701276984251	0.875
14454	13767	32.702997988185	0.875
14454	14396	33.203097988195	0.375
14454	15154	33.803097988195	0.375
14454	16985	35.303197988205	-1.375
14454	18335	36.181627104552	0.125
14454	19433	37.081627104552	0
14454	20062	37.590254943421	0.5
14454	20532	37.955146773799	0.25
14454	20579	37.998013929271	0.5
14454	21936	39.206178169232	-0.625
14454	23387	40.442263145676	0
14454	23707	40.706178169232	-1
14454	23924	40.8569692914	0.625
14454	24213	41.060214312594	0.25
14454	24398	41.21725986398	0.5
14454	24545	41.32090884045	0.875
14454	25365	41.920923309777	0.375
14454	26098	42.522105447397	0.375
14454	26396	42.727349761085	0.875
14454	27050	43.228384837218	0.125
14454	28228	44.328384837218	-0.5
14454	28757	44.730548591072	0.625
14454	29716	45.530554300167	0.125
14454	30581	46.150974842215	0.75
14454	30860	46.360860157751	0.875
14454	32029	47.409446286982	0.75
14454	32229	47.567350869686	-0.5
14454	32604	47.867450869696	0.625
14454	33178	48.367450869696	0.5
14454	33445	48.567550869706	0.75
14454	34218	49.167550869706	0.375
14454	34557	49.408328105012	0.875
14454	34948	49.709029863296	0.75
14454	35631	50.282306173948	0.75
14454	35697	50.316924086686	0.25
14454	35757	50.380132499146	0.75
14454	36052	50.586433853512	0.625
14454	37087	51.386433853512	0.125
14454	37479	51.694845294696	0.75
14454	37869	52.007259226454	0.625
14454	38091	52.184038441373	0.5
14454	38492	52.468241749339	0.625
14454	38536	52.493740036537	0.75
14454	38575	52.512192306347	0.25
14454	38748	52.674007849179	0.875
14454	38750	52.675525624717	0
14454	39911	53.477332261051	-0.125
14454	40492	53.977332261051	0.5
14454	40745	54.179316048477	0.875
14454	41533	54.887110333779	0.25
14454	41753	55.070149655667	0.125
14454	41894	55.188295558913	0.75
14454	42469	55.672684845832	0.375
14454	43130	56.17839001509	0.375
14454	44213	57.101309631104	0.5
14454	44633	57.401409631114	0.625
14454	45391	58.001409631114	0.25
14454	45699	58.310201295342	0.75
14454	46118	58.716061086036	0.5
14454	46353	58.916061086036	0.875
14454	47129	59.521577549779	0.375
14454	47165	59.56110318653	0.375
14454	47327	59.6626668468	0.875
14454	48004	60.26719687082	0.375
14454	48213	60.405857614301	0.375
14454	48239	60.470255013128	0.75
14454	48530	60.709318886607	0.75
14454	48686	60.874612106032	0.375
14454	48969	61.083868448255	0.75
14454	49316	61.383868448255	0.75
14454	49726	61.691614488037	0.75
14454	49729	61.692905715326	0.75
14454	49989	61.894887198805	0.875
14454	50015	61.898815944485	0.875
14454	50030	61.90029113074	1
14454	50503	62.304911962059	0.625
14454	50605	62.40029113074	0.5
14454	50770	62.506501565516	0.875
14454	50893	62.612380227435	0.75
14454	51262	62.914962429346	0.75
14454	51490	63.150718072392	0.25
14454	51713	63.38907980151	0.75
14454	51896	63.520097058599	-0.125
14454	51918	63.560358348295	0.625
14454	52542	64.068427035447	0.375
14454	53135	64.568427035447	0.5
14454	53738	65.071239674647	0.5
14454	54479	65.677148130649	0.25
14454	55157	66.27747732722	0.375
14454	55569	66.69658553768	0.625
14454	55967	67.001691733306	0.625
14454	56911	67.662221479833	0.875
14454	57452	68.062221479833	0.625
14454	57785	68.279070739753	0.875
14454	59007	69.386544501159	-0.375
14454	59098	69.465626976553	-0.5
14454	59784	70.075799158822	0.125
14454	60202	70.475799158822	0.625
14454	60515	70.769193476826	0.625
14454	61247	71.374205167104	0
14454	62226	72.486592673407	0.5
14454	62302	72.574205167104	-0.375
14454	62419	72.695393018654	0.875
14454	62659	72.895493018664	0.75
14454	63228	73.395493018664	0.5
14454	63395	73.503604402241	0.875
14454	64134	74.206681519224	0.125
14454	64433	74.509103982778	-0.25
14454	64471	74.515100662737	0.75
14454	64993	75.018828905002	0.375
14454	66327	76.218828905002	-0.5
14454	66974	76.731398873231	0.5
14454	67309	77.037937566316	0.75
14454	67509	77.238885619211	0.75
14454	68373	77.938885619211	0.25
14454	68431	78.002730431179	0.375
14454	69004	78.440349176669	0.5
14454	69160	78.608660151834	0.375
14454	69233	78.644909654563	0.875
14454	69304	78.718709973801	0.375
14454	69731	79.126107679257	0.5
14454	70404	79.626107679257	0.5
14454	70928	80.031840552113	0.625
14454	71891	80.8322631098	0.125
14454	71943	80.850756385161	0.125
14454	72203	81.036383796277	0.875
14454	72243	81.054615697979	0.75
14454	72518	81.263951627941	0.875
14454	72733	81.451712916939	0.375
14454	72823	81.54051884834	0.5
14454	72972	81.644782711042	0.875
14454	74020	82.544782711042	-0.125
14454	74434	82.961798089731	0.625
14454	74771	83.269850110811	0.75
14454	75265	83.772061703784	0.25
14454	75796	84.272061703784	0.5
14454	76021	84.472161703794	0.75
14454	76361	84.772161703794	0.75
14454	76633	84.976789501777	0.875
14454	77034	85.279589338388	0.625
14454	77294	85.479589338388	0.875
14454	78424	86.409282114774	0
14454	78434	86.411917897023	0.5
14454	79082	87.019329044844	0.375
14454	79230	87.17057944731	0.5
14454	79293	87.210642180394	0
14454	79671	87.51635235259	0.75
14454	79786	87.62845077651	0.25
14454	80507	88.228635553989	0.25
14454	80969	88.618003643178	0.875
14454	81223	88.820868939747	0.875
14454	82166	89.629392404427	0
14454	82578	90.029392404427	0.625
14454	82957	90.339788761882	0.75
14454	82970	90.342783243115	0.75
14454	83471	90.746282808253	0.625
14454	83473	90.747924278586	0.625
14454	83928	91.155945760978	0.625
14454	83932	91.159881349499	0.625
14454	84155	91.360033703779	0.875
14454	84157	91.360220650953	0.875
14454	84171	91.360320650963	1
14454	85244	92.160320650963	0.125
14454	85875	92.662964679351	0.375
14454	86213	92.920681539062	0.5
14454	86860	93.522687837917	0.375
14454	88838	95.122787837927	-1.25
14454	89561	95.722787837927	0.375
14454	90122	96.233517635187	0.5
14454	90859	96.942234195726	0.125
14454	91253	97.342234195726	0.625
14454	91637	97.74366166184	0.625
14454	92050	98.14997989102	0.625
14454	92535	98.650767853757	0.5
14454	93432	99.459924718352	0.125
14454	93697	99.665909319977	0.75
14454	94084	99.965909319977	0.75
14454	94258	100.098960563347	0.75
14454	94432	100.254141620359	0.875
14454	95132	100.860802014748	0.125
14454	95639	101.370512088281	0.5
14454	95889	101.578041722718	0.875
14454	96318	101.982141013568	0.625
14454	97731	103.082241013578	-0.375
14454	98224	103.482241013578	0.625
14454	98476	103.68346942003	0.875
14454	98857	104.007046006987	0.75
14454	99364	104.409082157883	0.625
14454	99607	104.595153015431	0.625
14454	99910	104.80265921922	0.75
14454	100476	105.30265921922	0.375
14454	100664	105.513238800975	0.875
14454	101304	106.11335038416	0.25
14454	101636	106.41335038416	0.75
14454	102086	106.815157815885	0.5
14454	102321	107.02224327538	0.875
14454	102433	107.123594834797	0.125
14454	102563	107.224760117325	0.875
14454	103006	107.624760117325	0.625
14454	103799	108.233841557255	0.375
14454	104049	108.437701328079	0.875
14454	105539	109.742410685317	-0.75
14454	105888	110.042410685317	0.75
14454	106636	110.646177070686	0.375
14454	107385	111.354361554347	0.25
14454	107850	111.756004209544	0.625
14454	108792	112.462277430035	0
14454	109060	112.662277430035	0.875
14454	109301	112.866718391978	0.75
14454	109578	113.073605319869	0.75
14454	109820	113.268402307798	0.625
14454	109858	113.273910055334	0.875
14454	110562	113.874010055344	0.25
14454	111302	114.474010055344	0.25
14454	112791	115.675030259451	-0.375
14454	112795	115.678101198055	-0.375
14454	113778	116.378418168089	0.25
14454	113780	116.379650198524	0.25
14454	114348	116.779750198534	0.375
14454	114838	117.179750198534	0.5
14454	115597	117.810217262565	0.75
14454	115777	117.986863680231	0.125
14454	115843	118.022785817577	0.875
14454	116523	118.532056914914	0.375
14454	117362	119.232056914914	0.25
14454	118156	119.841858697543	0.375
14454	118960	120.545252292158	0.125
14454	119479	121.062994108763	0.625
14454	119705	121.353398602723	0.125
14454	120392	121.957790335395	0.25
14454	121025	122.557790335395	0.375
14454	121480	122.967605123181	0.625
14454	121848	123.371644224667	0.625
14454	122347	123.876401661625	0.5
14454	122487	123.991733052005	0.5
14454	122507	124.036582633602	0.5
14454	122575	124.080898602651	0.875
14454	122697	124.199391139222	0.875
14454	122842	124.344585975343	0.75
14454	122950	124.3889472787	0.625
14454	123100	124.547462035612	0.875
14454	123896	125.157216250835	0.125
14454	124382	125.557216250835	0.625
14454	124797	125.86384340413	0.75
14454	124898	125.954980476792	0.875
14454	125165	126.169520042222	0.75
14454	126083	126.976985254004	0
14454	126875	127.676985254004	0.25
14454	127146	127.898134475259	0.625
14454	127395	128.103241404697	0.75
14454	127699	128.403241404697	0.75
14454	128197	128.809021355728	0.5
14454	128570	129.109021355728	0.75
14454	128971	129.409121355738	0.625
14454	129474	129.809121355738	0.5
14454	129701	130.011913764716	0.875
14454	129719	130.018463051031	0.5
14454	130621	130.718563051041	0
14454	130912	130.918563051041	0.875
14454	131133	131.120483094748	0.875
14454	131967	131.830447787349	0.25
14454	132126	131.9380264356	0.25
14454	132420	132.144436228728	0.75
14454	133138	132.744436228728	0.375
14454	133409	132.951152043671	0.875
14454	133980	133.460276354423	0.375
14454	134109	133.631669232589	0.375
14454	135015	134.362208608621	-0.125
14454	135084	134.450837603507	0.125
14454	135305	134.615476104349	0.125
14454	135370	134.669776560026	0.875
14454	136149	135.27377447844	0.25
14454	136474	135.57377447844	0.75
14455	155	20.10000000001	0.1
14455	332	20.40000000001	0.3
14455	515	20.701517617118	0.3
14455	1358	21.607421616061	0.4
14455	2008	22.207421616061	0.6
14455	2151	22.31280094186	0.1
14455	2696	22.820272983007	0.2
14455	2783	22.91280094186	0.6
14455	3027	23.118962414518	0.2
14455	3895	23.918962414518	0.8
14455	4704	24.627280991163	0.7
14455	5169	25.137045671536	0.5
14455	5287	25.247913934272	0.5
14455	5724	25.643792678617	0.5
14455	5985	25.84816318524	0.6
14455	7015	26.757483953372	0.9
14455	7630	27.257483953372	0.5
14455	7919	27.466498098367	0.2
14455	8096	27.665046143441	0.7
14455	8339	27.873035583566	0.2
14455	8898	28.473035583566	0.6
14455	9195	28.777763448979	0.3
14455	10111	29.580730674054	0.8
14455	10625	30.097307195123	0.5
14455	10957	30.401216100805	0.3
14455	11134	30.581006428866	1
14455	11274	30.70187825821	0.3
14455	11612	31.008002763194	0.3
14455	12074	31.408002763194	0.4
14455	12240	31.513314555903	0.1
14455	12455	31.716979072977	0.2
14455	12990	32.119991836783	0.4
14455	13386	32.426925081966	0.3
14455	13470	32.493142675003	0.7
14455	13730	32.689795492142	0.4
14455	13763	32.701276984251	0.2
14455	13767	32.702997988185	0.2
14455	14396	33.203097988195	0.5
14455	15154	33.803097988195	0.6
14455	16985	35.303197988205	1.5
14455	18335	36.181627104552	0.7
14455	19433	37.081627104552	0.9
14455	20062	37.590254943421	0.5
14455	20532	37.955146773799	0.6
14455	20579	37.998013929271	0.4
14455	21936	39.206178169232	1.2
14455	23387	40.442263145676	0.9
14455	23707	40.706178169232	1.5
14455	23924	40.8569692914	0.4
14455	24213	41.060214312594	0.5
14455	24398	41.21725986398	0.5
14455	24545	41.32090884045	0.1
14455	25365	41.920923309777	0.6
14455	26098	42.522105447397	0.6
14455	26396	42.727349761085	0.2
14455	27050	43.228384837218	0.5
14455	28228	44.328384837218	1.1
14455	28757	44.730548591072	0.4
14455	29716	45.530554300167	0.8
14455	30581	46.150974842215	0.2
14455	30860	46.360860157751	0.2
14455	32029	47.409446286982	0.3
14455	32229	47.567350869686	1.2
14455	32604	47.867450869696	0.3
14455	33178	48.367450869696	0.5
14455	33445	48.567550869706	0.2
14455	34218	49.167550869706	0.6
14455	34557	49.408328105012	0.2
14455	34948	49.709029863296	0.3
14455	35631	50.282306173948	0.3
14455	35697	50.316924086686	0.6
14455	35757	50.380132499146	0.3
14455	36052	50.586433853512	0.2
14455	37087	51.386433853512	0.8
14455	37479	51.694845294696	0.3
14455	37869	52.007259226454	0.3
14455	38091	52.184038441373	0.5
14455	38492	52.468241749339	0.4
14455	38536	52.493740036537	0.3
14455	38575	52.512192306347	0.5
14455	38748	52.674007849179	0.2
14455	38750	52.675525624717	0.9
14455	39911	53.477332261051	0.8
14455	40492	53.977332261051	0.5
14455	40745	54.179316048477	0.2
14455	41533	54.887110333779	0.7
14455	41753	55.070149655667	0.8
14455	41894	55.188295558913	0.3
14455	42469	55.672684845832	0.6
14455	43130	56.17839001509	0.5
14455	44213	57.101309631104	0.5
14455	44633	57.401409631114	0.3
14455	45391	58.001409631114	0.6
14455	45699	58.310201295342	0.3
14455	46118	58.716061086036	0.4
14455	46353	58.916061086036	0.2
14455	47129	59.521577549779	0.6
14455	47165	59.56110318653	0.6
14455	47327	59.6626668468	0.1
14455	48004	60.26719687082	0.6
14455	48213	60.405857614301	0.6
14455	48239	60.470255013128	0.2
14455	48530	60.709318886607	0.3
14455	48686	60.874612106032	0.6
14455	48969	61.083868448255	0.2
14455	49316	61.383868448255	0.3
14455	49726	61.691614488037	0.3
14455	49729	61.692905715326	0.3
14455	49989	61.894887198805	0.2
14455	50015	61.898815944485	0.2
14455	50030	61.90029113074	0
14455	50503	62.304911962059	0.4
14455	50605	62.40029113074	0.5
14455	50770	62.506501565516	0.1
14455	50893	62.612380227435	0.3