version 2
run Stability-27-20130528-00:51:51-21385
attr configname Stability
attr datetime 20130528-00:51:51
attr experiment Stability
attr inifile omnetpp.ini
attr iterationvars $0=1e4
attr iterationvars2 "$0=1e4, $repetition=7"
attr measurement $0=1e4
attr network Network
attr processid 21385
attr repetition 7
attr replication #7
attr resultdir results
attr runnumber 27
attr seedset 27

vector 2715  Network.churner  inGoingSizeSig:vector  ETV
vector 2619  Network.dyn_peer[0]  lookupHopsSig:vector  ETV
vector 2620  Network.dyn_peer[0]  lookupStabilitySig:vector  ETV
vector 2621  Network.dyn_peer[0]  lookupTimeSig:vector  ETV
vector 2622  Network.dyn_peer[1]  lookupHopsSig:vector  ETV
vector 2623  Network.dyn_peer[1]  lookupStabilitySig:vector  ETV
vector 2624  Network.dyn_peer[1]  lookupTimeSig:vector  ETV
vector 2625  Network.dyn_peer[2]  lookupHopsSig:vector  ETV
vector 2626  Network.dyn_peer[2]  lookupStabilitySig:vector  ETV
vector 2627  Network.dyn_peer[2]  lookupTimeSig:vector  ETV
vector 2628  Network.dyn_peer[3]  lookupHopsSig:vector  ETV
vector 2629  Network.dyn_peer[3]  lookupStabilitySig:vector  ETV
vector 2630  Network.dyn_peer[3]  lookupTimeSig:vector  ETV
vector 2631  Network.dyn_peer[4]  lookupHopsSig:vector  ETV
vector 2632  Network.dyn_peer[4]  lookupStabilitySig:vector  ETV
vector 2633  Network.dyn_peer[4]  lookupTimeSig:vector  ETV
vector 2634  Network.dyn_peer[5]  lookupHopsSig:vector  ETV
vector 2635  Network.dyn_peer[5]  lookupStabilitySig:vector  ETV
vector 2636  Network.dyn_peer[5]  lookupTimeSig:vector  ETV
vector 2637  Network.dyn_peer[6]  lookupHopsSig:vector  ETV
vector 2638  Network.dyn_peer[6]  lookupStabilitySig:vector  ETV
vector 2639  Network.dyn_peer[6]  lookupTimeSig:vector  ETV
vector 2640  Network.dyn_peer[7]  lookupHopsSig:vector  ETV
vector 2641  Network.dyn_peer[7]  lookupStabilitySig:vector  ETV
vector 2642  Network.dyn_peer[7]  lookupTimeSig:vector  ETV
vector 2643  Network.dyn_peer[8]  lookupHopsSig:vector  ETV
vector 2644  Network.dyn_peer[8]  lookupStabilitySig:vector  ETV
vector 2645  Network.dyn_peer[8]  lookupTimeSig:vector  ETV
vector 2646  Network.dyn_peer[9]  lookupHopsSig:vector  ETV
vector 2647  Network.dyn_peer[9]  lookupStabilitySig:vector  ETV
vector 2648  Network.dyn_peer[9]  lookupTimeSig:vector  ETV
vector 2649  Network.dyn_peer[10]  lookupHopsSig:vector  ETV
vector 2650  Network.dyn_peer[10]  lookupStabilitySig:vector  ETV
vector 2651  Network.dyn_peer[10]  lookupTimeSig:vector  ETV
vector 2652  Network.dyn_peer[11]  lookupHopsSig:vector  ETV
vector 2653  Network.dyn_peer[11]  lookupStabilitySig:vector  ETV
vector 2654  Network.dyn_peer[11]  lookupTimeSig:vector  ETV
vector 2655  Network.dyn_peer[12]  lookupHopsSig:vector  ETV
vector 2656  Network.dyn_peer[12]  lookupStabilitySig:vector  ETV
vector 2657  Network.dyn_peer[12]  lookupTimeSig:vector  ETV
vector 2658  Network.dyn_peer[13]  lookupHopsSig:vector  ETV
vector 2659  Network.dyn_peer[13]  lookupStabilitySig:vector  ETV
vector 2660  Network.dyn_peer[13]  lookupTimeSig:vector  ETV
vector 2661  Network.dyn_peer[14]  lookupHopsSig:vector  ETV
vector 2662  Network.dyn_peer[14]  lookupStabilitySig:vector  ETV
vector 2663  Network.dyn_peer[14]  lookupTimeSig:vector  ETV
vector 2664  Network.dyn_peer[15]  lookupHopsSig:vector  ETV
vector 2665  Network.dyn_peer[15]  lookupStabilitySig:vector  ETV
vector 2666  Network.dyn_peer[15]  lookupTimeSig:vector  ETV
vector 2667  Network.dyn_peer[16]  lookupHopsSig:vector  ETV
vector 2668  Network.dyn_peer[16]  lookupStabilitySig:vector  ETV
vector 2669  Network.dyn_peer[16]  lookupTimeSig:vector  ETV
vector 2670  Network.dyn_peer[17]  lookupHopsSig:vector  ETV
vector 2671  Network.dyn_peer[17]  lookupStabilitySig:vector  ETV
vector 2672  Network.dyn_peer[17]  lookupTimeSig:vector  ETV
vector 2673  Network.dyn_peer[18]  lookupHopsSig:vector  ETV
vector 2674  Network.dyn_peer[18]  lookupStabilitySig:vector  ETV
vector 2675  Network.dyn_peer[18]  lookupTimeSig:vector  ETV
vector 2676  Network.dyn_peer[19]  lookupHopsSig:vector  ETV
vector 2677  Network.dyn_peer[19]  lookupStabilitySig:vector  ETV
vector 2678  Network.dyn_peer[19]  lookupTimeSig:vector  ETV
vector 2679  Network.dyn_peer[20]  lookupHopsSig:vector  ETV
vector 2680  Network.dyn_peer[20]  lookupStabilitySig:vector  ETV
vector 2681  Network.dyn_peer[20]  lookupTimeSig:vector  ETV
vector 2682  Network.dyn_peer[21]  lookupHopsSig:vector  ETV
vector 2683  Network.dyn_peer[21]  lookupStabilitySig:vector  ETV
vector 2684  Network.dyn_peer[21]  lookupTimeSig:vector  ETV
vector 2685  Network.dyn_peer[22]  lookupHopsSig:vector  ETV
vector 2686  Network.dyn_peer[22]  lookupStabilitySig:vector  ETV
vector 2687  Network.dyn_peer[22]  lookupTimeSig:vector  ETV
vector 2688  Network.dyn_peer[23]  lookupHopsSig:vector  ETV
vector 2689  Network.dyn_peer[23]  lookupStabilitySig:vector  ETV
vector 2690  Network.dyn_peer[23]  lookupTimeSig:vector  ETV
vector 2691  Network.dyn_peer[24]  lookupHopsSig:vector  ETV
vector 2692  Network.dyn_peer[24]  lookupStabilitySig:vector  ETV
vector 2693  Network.dyn_peer[24]  lookupTimeSig:vector  ETV
vector 2694  Network.dyn_peer[25]  lookupHopsSig:vector  ETV
vector 2695  Network.dyn_peer[25]  lookupStabilitySig:vector  ETV
vector 2696  Network.dyn_peer[25]  lookupTimeSig:vector  ETV
vector 2697  Network.dyn_peer[26]  lookupHopsSig:vector  ETV
vector 2698  Network.dyn_peer[26]  lookupStabilitySig:vector  ETV
vector 2699  Network.dyn_peer[26]  lookupTimeSig:vector  ETV
vector 2700  Network.dyn_peer[27]  lookupHopsSig:vector  ETV
vector 2701  Network.dyn_peer[27]  lookupStabilitySig:vector  ETV
vector 2702  Network.dyn_peer[27]  lookupTimeSig:vector  ETV
vector 2703  Network.dyn_peer[28]  lookupHopsSig:vector  ETV
vector 2704  Network.dyn_peer[28]  lookupStabilitySig:vector  ETV
vector 2705  Network.dyn_peer[28]  lookupTimeSig:vector  ETV
vector 2706  Network.dyn_peer[29]  lookupHopsSig:vector  ETV
vector 2707  Network.dyn_peer[29]  lookupStabilitySig:vector  ETV
vector 2708  Network.dyn_peer[29]  lookupTimeSig:vector  ETV
vector 2709  Network.dyn_peer[30]  lookupHopsSig:vector  ETV
vector 2710  Network.dyn_peer[30]  lookupStabilitySig:vector  ETV
vector 2711  Network.dyn_peer[30]  lookupTimeSig:vector  ETV
vector 2712  Network.dyn_peer[31]  lookupHopsSig:vector  ETV
vector 2713  Network.dyn_peer[31]  lookupStabilitySig:vector  ETV
vector 2714  Network.dyn_peer[31]  lookupTimeSig:vector  ETV
2619	33	30.2	2
2619	37	30.5	2
2619	41	30.704152636453	1
2619	49	30.923006180008	1
2619	1047	350.3	3
2619	1051	350.6	2
2619	1057	350.815636394922	1
2619	1063	351.132188321469	2
2619	2071	670.2	2
2619	2076	670.505560254238	2
2619	2080	670.714127099011	1
2619	2085	671.022751113481	2
2619	3147	990.1	1
2619	3150	990.3	1
2619	3155	990.50365914066	1
2619	3159	990.710329274748	1
2619	4230	1310.1	1
2619	4234	1310.4	2
2619	4239	1310.708297925367	2
2619	4248	1310.939146800868	1
2619	5298	1630	0
2619	5301	1630.2	1
2619	5306	1630.505328605754	2
2619	5310	1630.706379059147	1
2619	6326	1950.2	2
2619	6330	1950.5	2
2619	6335	1950.806706823513	2
2619	6340	1951.021402770417	1
2619	7393	2270.1	1
2619	7397	2270.306445940276	1
2619	7402	2270.518105253094	1
2619	7406	2270.722793906597	1
2619	8439	2590	0
2619	8442	2590.2	1
2619	8447	2590.503154697834	2
2619	8453	2590.721654009616	1
2619	9492	2910.2	2
2619	9497	2910.502560847958	2
2619	9502	2910.80406892382	2
2619	9507	2911.014775898804	1
2619	10543	3230.1	1
2619	10547	3230.4	2
2619	10552	3230.701060321291	2
2619	10562	3230.931970073667	1
2619	11594	3550.1	1
2619	11601	3550.316016580624	1
2619	11607	3550.625700808377	2
2619	11616	3550.854294030084	1
2619	12652	3870	0
2619	12656	3870.3	2
2619	12660	3870.508594089669	1
2619	12664	3870.714962524864	1
2619	13674	4190.2	2
2619	13678	4190.5	2
2619	13683	4190.805955709002	2
2619	13688	4191.11138229303	2
2619	14710	4510.3	3
2619	14713	4510.5	1
2619	14717	4510.709083917322	1
2619	14723	4511.015797016792	2
2619	15762	4830.1	1
2619	15766	4830.30640599868	1
2619	15771	4830.610595915079	2
2619	15776	4830.818461621835	1
2619	16771	5150.2	2
2619	16775	5150.407684249719	1
2619	16779	5150.616491562837	1
2619	16783	5150.823905667952	1
2619	17800	5470.1	1
2619	17804	5470.30015566894	1
2619	17808	5470.501038311632	1
2619	17816	5470.730286901049	1
2619	18879	5790.1	1
2619	18883	5790.4	2
2619	18888	5790.705291165176	2
2619	18893	5791.015171861694	2
2619	19938	6110.1	1
2619	19942	6110.4	2
2619	19946	6110.608891836756	1
2619	19951	6110.816789499574	1
2619	20962	6430.1	1
2619	20966	6430.307778331516	1
2619	20970	6430.51319095466	1
2619	20977	6430.825971370545	2
2619	22024	6750.2	2
2619	22027	6750.4	1
2619	22032	6750.607987733466	1
2619	22036	6750.815340616068	1
2619	23044	7070.3	3
2619	23047	7070.5	1
2619	23053	7070.708658652104	1
2619	23057	7070.909677594763	1
2619	24080	7390	0
2619	24083	7390.2	1
2619	24088	7390.409577753795	1
2619	24092	7390.615792741048	1
2619	25102	7710.3	3
2619	25106	7710.6	2
2619	25112	7710.813379996275	1
2619	25117	7711.027391008634	1
2619	26154	8030	0
2619	26158	8030.3	2
2619	26162	8030.509964516395	1
2619	26169	8030.827497665163	2
2619	27142	8350.2	2
2619	27146	8350.5	2
2619	27151	8350.803733314576	2
2619	27155	8351.005933851597	1
2619	28179	8670.1	1
2619	28184	8670.405007902663	2
2619	28188	8670.614833705029	1
2619	28207	8670.887197946269	1
2619	29250	8990.2	2
2619	29254	8990.5	2
2619	29259	8990.709707227178	1
2619	29264	8990.923723286206	1
2619	30309	9310.1	1
2619	30314	9310.403574812533	2
2619	30319	9310.710276646657	2
2619	30323	9310.917802353576	1
2619	31352	9630.3	3
2619	31355	9630.5	1
2619	31362	9630.722153888655	1
2619	31368	9630.937475034084	1
2619	32405	9950.2	2
2619	32410	9950.504062964098	2
2619	32417	9950.726845164217	1
2619	32425	9951.053506137671	2
2619	33455	10270.3	3
2619	33460	10270.609928636241	2
2619	33464	10270.817713720348	1
2619	33468	10271.024688047786	1
2619	34513	10590.1	1
2619	34518	10590.408722320857	2
2619	34522	10590.618379184674	1
2619	34526	10590.821765674679	1
2619	35556	10910.1	1
2619	35560	10910.4	2
2619	35565	10910.704417236673	2
2619	35576	10910.94936593789	1
2619	36600	11230.2	2
2619	36608	11230.423511872984	1
2619	36612	11230.630072219554	1
2619	36617	11230.933887857392	2
2619	37646	11550.2	2
2619	37649	11550.4	1
2619	37654	11550.707724999724	2
2619	37659	11550.92652519977	1
2619	38697	11870.2	2
2619	38700	11870.4	1
2619	38704	11870.605542684802	1
2619	38710	11870.917689858217	2
2619	39749	12190	0
2619	39753	12190.3	2
2619	39757	12190.500530186712	1
2619	39762	12190.707771453491	1
2619	40797	12510.1	1
2619	40800	12510.3	1
2619	40805	12510.514829966562	1
2619	40809	12510.718039749943	1
2619	41835	12830.2	2
2619	41838	12830.4	1
2619	41842	12830.60363144617	1
2619	41847	12830.911803800775	2
2619	42842	13150.1	1
2619	42846	13150.4	2
2619	42851	13150.707476618285	2
2619	42861	13151.055920413005	2
2619	43908	13470.2	2
2619	43912	13470.405061781101	1
2619	43918	13470.711300400541	2
2619	43925	13471.02528692506	2
2619	44961	13790.1	1
2619	44966	13790.403121806296	2
2619	44972	13790.625553813626	1
2619	44985	13790.981103304005	2
2619	46015	14110.2	2
2619	46019	14110.5	2
2619	46025	14110.812448835472	2
2619	46031	14111.016961791182	1
2619	47073	14430.3	3
2619	47076	14430.5	1
2619	47083	14430.724468635673	1
2619	47093	14430.965202748298	1
2619	48116	14750.1	1
2619	48119	14750.3	1
2619	48123	14750.505393885045	1
2619	48128	14750.709766096956	1
2619	49160	15070.1	1
2619	49164	15070.4	2
2619	49168	15070.604123530993	1
2619	49173	15070.822545103095	1
2619	50247	15390.1	1
2619	50252	15390.313235828824	1
2619	50258	15390.537251713918	1
2619	50265	15390.850598698936	2
2619	51324	15710.1	1
2619	51327	15710.3	1
2619	51332	15710.609929276041	2
2619	51337	15710.826484477144	1
2619	52354	16030.1	1
2619	52359	16030.305488325957	1
2619	52365	16030.52574280387	1
2619	52369	16030.732282703611	1
2619	53388	16350.1	1
2619	53391	16350.3	1
2619	53397	16350.60780077798	2
2619	53402	16350.822312531735	1
2619	54452	16670.1	1
2619	54456	16670.4	2
2619	54460	16670.603419364418	1
2619	54465	16670.810430040132	1
2619	55488	16990.1	1
2619	55491	16990.3	1
2619	55495	16990.501780215909	1
2619	55499	16990.704053885438	1
2619	56566	17310.3	3
2619	56571	17310.609517134532	2
2619	56577	17310.918129409196	2
2619	56582	17311.12392837597	1
2619	57620	17630.2	2
2619	57624	17630.5	2
2619	57628	17630.708541616266	1
2619	57632	17630.914250392056	1
2619	58651	17950.1	1
2619	58654	17950.3	1
2619	58660	17950.611724846737	2
2619	58677	17950.990999570605	2
2619	59686	18270.1	1
2619	59690	18270.4	2
2619	59694	18270.608421495889	1
2619	59700	18270.924566726899	2
2619	60701	18590.1	1
2619	60705	18590.4	2
2619	60713	18590.717730317202	2
2619	60718	18590.928364443445	1
2619	61716	18910.1	1
2619	61721	18910.409952013415	2
2619	61727	18910.721886221746	2
2619	61731	18910.931335808784	1
2619	62760	19230.1	1
2619	62764	19230.300921596407	1
2619	62769	19230.603473041108	2
2619	62773	19230.805348596872	1
2619	63769	19550.2	2
2619	63773	19550.5	2
2619	63778	19550.808813021166	2
2619	63782	19551.01668044398	1
2619	64790	19870.1	1
2619	64793	19870.3	1
2619	64797	19870.509723402203	1
2619	64805	19870.735180709317	1
2619	65804	20190.2	2
2619	65807	20190.4	1
2619	65813	20190.706697407374	2
2619	65834	20190.997492181712	1
2620	33	30.2	0.75
2620	37	30.5	0.75
2620	41	30.704152636453	0.875
2620	49	30.923006180008	0.875
2620	1047	350.3	0.625
2620	1051	350.6	0.75
2620	1057	350.815636394922	0.875
2620	1063	351.132188321469	0.75
2620	2071	670.2	0.75
2620	2076	670.505560254238	0.75
2620	2080	670.714127099011	0.875
2620	2085	671.022751113481	0.75
2620	3147	990.1	0.875
2620	3150	990.3	0.875
2620	3155	990.50365914066	0.875
2620	3159	990.710329274748	0.875
2620	4230	1310.1	0.875
2620	4234	1310.4	0.75
2620	4239	1310.708297925367	0.75
2620	4248	1310.939146800868	0.875
2620	5298	1630	1
2620	5301	1630.2	0.875
2620	5306	1630.505328605754	0.75
2620	5310	1630.706379059147	0.875
2620	6326	1950.2	0.75
2620	6330	1950.5	0.75
2620	6335	1950.806706823513	0.75
2620	6340	1951.021402770417	0.875
2620	7393	2270.1	0.875
2620	7397	2270.306445940276	0.875
2620	7402	2270.518105253094	0.875
2620	7406	2270.722793906597	0.875
2620	8439	2590	1
2620	8442	2590.2	0.875
2620	8447	2590.503154697834	0.75
2620	8453	2590.721654009616	0.875
2620	9492	2910.2	0.75
2620	9497	2910.502560847958	0.75
2620	9502	2910.80406892382	0.75
2620	9507	2911.014775898804	0.875
2620	10543	3230.1	0.875
2620	10547	3230.4	0.75
2620	10552	3230.701060321291	0.75
2620	10562	3230.931970073667	0.875
2620	11594	3550.1	0.875
2620	11601	3550.316016580624	0.875
2620	11607	3550.625700808377	0.75
2620	11616	3550.854294030084	0.875
2620	12652	3870	1
2620	12656	3870.3	0.75
2620	12660	3870.508594089669	0.875
2620	12664	3870.714962524864	0.875
2620	13674	4190.2	0.75
2620	13678	4190.5	0.75
2620	13683	4190.805955709002	0.75
2620	13688	4191.11138229303	0.75
2620	14710	4510.3	0.625
2620	14713	4510.5	0.875
2620	14717	4510.709083917322	0.875
2620	14723	4511.015797016792	0.75
2620	15762	4830.1	0.875
2620	15766	4830.30640599868	0.875
2620	15771	4830.610595915079	0.75
2620	15776	4830.818461621835	0.875
2620	16771	5150.2	0.75
2620	16775	5150.407684249719	0.875
2620	16779	5150.616491562837	0.875
2620	16783	5150.823905667952	0.875
2620	17800	5470.1	0.875
2620	17804	5470.30015566894	0.875
2620	17808	5470.501038311632	0.875
2620	17816	5470.730286901049	0.875
2620	18879	5790.1	0.875
2620	18883	5790.4	0.75
2620	18888	5790.705291165176	0.75
2620	18893	5791.015171861694	0.75
2620	19938	6110.1	0.875
2620	19942	6110.4	0.75
2620	19946	6110.608891836756	0.875
2620	19951	6110.816789499574	0.875
2620	20962	6430.1	0.875
2620	20966	6430.307778331516	0.875
2620	20970	6430.51319095466	0.875
2620	20977	6430.825971370545	0.75
2620	22024	6750.2	0.75
2620	22027	6750.4	0.875
2620	22032	6750.607987733466	0.875
2620	22036	6750.815340616068	0.875
2620	23044	7070.3	0.625
2620	23047	7070.5	0.875
2620	23053	7070.708658652104	0.875
2620	23057	7070.909677594763	0.875
2620	24080	7390	1
2620	24083	7390.2	0.875
2620	24088	7390.409577753795	0.875
2620	24092	7390.615792741048	0.875
2620	25102	7710.3	0.625
2620	25106	7710.6	0.75
2620	25112	7710.813379996275	0.875
2620	25117	7711.027391008634	0.875
2620	26154	8030	1
2620	26158	8030.3	0.75
2620	26162	8030.509964516395	0.875
2620	26169	8030.827497665163	0.75
2620	27142	8350.2	0.75
2620	27146	8350.5	0.75
2620	27151	8350.803733314576	0.75
2620	27155	8351.005933851597	0.875
2620	28179	8670.1	0.875
2620	28184	8670.405007902663	0.75
2620	28188	8670.614833705029	0.875
2620	28207	8670.887197946269	0.875
2620	29250	8990.2	0.75
2620	29254	8990.5	0.75
2620	29259	8990.709707227178	0.875
2620	29264	8990.923723286206	0.875
2620	30309	9310.1	0.875
2620	30314	9310.403574812533	0.75
2620	30319	9310.710276646657	0.75
2620	30323	9310.917802353576	0.875
2620	31352	9630.3	0.625
2620	31355	9630.5	0.875
2620	31362	9630.722153888655	0.875
2620	31368	9630.937475034084	0.875
2620	32405	9950.2	0.75
2620	32410	9950.504062964098	0.75
2620	32417	9950.726845164217	0.875
2620	32425	9951.053506137671	0.75
2620	33455	10270.3	0.625
2620	33460	10270.609928636241	0.75
2620	33464	10270.817713720348	0.875
2620	33468	10271.024688047786	0.875
2620	34513	10590.1	0.875
2620	34518	10590.408722320857	0.75
2620	34522	10590.618379184674	0.875
2620	34526	10590.821765674679	0.875
2620	35556	10910.1	0.875
2620	35560	10910.4	0.75
2620	35565	10910.704417236673	0.75
2620	35576	10910.94936593789	0.875
2620	36600	11230.2	0.75
2620	36608	11230.423511872984	0.875
2620	36612	11230.630072219554	0.875
2620	36617	11230.933887857392	0.75
2620	37646	11550.2	0.75
2620	37649	11550.4	0.875
2620	37654	11550.707724999724	0.75
2620	37659	11550.92652519977	0.875
2620	38697	11870.2	0.75
2620	38700	11870.4	0.875
2620	38704	11870.605542684802	0.875
2620	38710	11870.917689858217	0.75
2620	39749	12190	1
2620	39753	12190.3	0.75
2620	39757	12190.500530186712	0.875
2620	39762	12190.707771453491	0.875
2620	40797	12510.1	0.875
2620	40800	12510.3	0.875
2620	40805	12510.514829966562	0.875
2620	40809	12510.718039749943	0.875
2620	41835	12830.2	0.75
2620	41838	12830.4	0.875
2620	41842	12830.60363144617	0.875
2620	41847	12830.911803800775	0.75
2620	42842	13150.1	0.875
2620	42846	13150.4	0.75
2620	42851	13150.707476618285	0.75
2620	42861	13151.055920413005	0.75
2620	43908	13470.2	0.75
2620	43912	13470.405061781101	0.875
2620	43918	13470.711300400541	0.75
2620	43925	13471.02528692506	0.75
2620	44961	13790.1	0.875
2620	44966	13790.403121806296	0.75
2620	44972	13790.625553813626	0.875
2620	44985	13790.981103304005	0.75
2620	46015	14110.2	0.75
2620	46019	14110.5	0.75
2620	46025	14110.812448835472	0.75
2620	46031	14111.016961791182	0.875
2620	47073	14430.3	0.625
2620	47076	14430.5	0.875
2620	47083	14430.724468635673	0.875
2620	47093	14430.965202748298	0.875
2620	48116	14750.1	0.875
2620	48119	14750.3	0.875
2620	48123	14750.505393885045	0.875
2620	48128	14750.709766096956	0.875
2620	49160	15070.1	0.875
2620	49164	15070.4	0.75
2620	49168	15070.604123530993	0.875
2620	49173	15070.822545103095	0.875
2620	50247	15390.1	0.875
2620	50252	15390.313235828824	0.875
2620	50258	15390.537251713918	0.875
2620	50265	15390.850598698936	0.75
2620	51324	15710.1	0.875
2620	51327	15710.3	0.875
2620	51332	15710.609929276041	0.75
2620	51337	15710.826484477144	0.875
2620	52354	16030.1	0.875
2620	52359	16030.305488325957	0.875
2620	52365	16030.52574280387	0.875
2620	52369	16030.732282703611	0.875
2620	53388	16350.1	0.875
2620	53391	16350.3	0.875
2620	53397	16350.60780077798	0.75
2620	53402	16350.822312531735	0.875
2620	54452	16670.1	0.875
2620	54456	16670.4	0.75
2620	54460	16670.603419364418	0.875
2620	54465	16670.810430040132	0.875
2620	55488	16990.1	0.875
2620	55491	16990.3	0.875
2620	55495	16990.501780215909	0.875
2620	55499	16990.704053885438	0.875
2620	56566	17310.3	0.625
2620	56571	17310.609517134532	0.75
2620	56577	17310.918129409196	0.75
2620	56582	17311.12392837597	0.875
2620	57620	17630.2	0.75
2620	57624	17630.5	0.75
2620	57628	17630.708541616266	0.875
2620	57632	17630.914250392056	0.875
2620	58651	17950.1	0.875
2620	58654	17950.3	0.875
2620	58660	17950.611724846737	0.75
2620	58677	17950.990999570605	0.75
2620	59686	18270.1	0.875
2620	59690	18270.4	0.75
2620	59694	18270.608421495889	0.875
2620	59700	18270.924566726899	0.75
2620	60701	18590.1	0.875
2620	60705	18590.4	0.75
2620	60713	18590.717730317202	0.75
2620	60718	18590.928364443445	0.875
2620	61716	18910.1	0.875
2620	61721	18910.409952013415	0.75
2620	61727	18910.721886221746	0.75
2620	61731	18910.931335808784	0.875
2620	62760	19230.1	0.875
2620	62764	19230.300921596407	0.875
2620	62769	19230.603473041108	0.75
2620	62773	19230.805348596872	0.875
2620	63769	19550.2	0.75
2620	63773	19550.5	0.75
2620	63778	19550.808813021166	0.75
2620	63782	19551.01668044398	0.875
2620	64790	19870.1	0.875
2620	64793	19870.3	0.875
2620	64797	19870.509723402203	0.875
2620	64805	19870.735180709317	0.875
2620	65804	20190.2	0.75
2620	65807	20190.4	0.875
2620	65813	20190.706697407374	0.75
2620	65834	20190.997492181712	0.875
2621	33	30.2	0.2
2621	37	30.5	0.3
2621	41	30.704152636453	0.2
2621	49	30.923006180008	0.2
2621	1047	350.3	0.3
2621	1051	350.6	0.3
2621	1057	350.815636394922	0.2
2621	1063	351.132188321469	0.3
2621	2071	670.2	0.2
2621	2076	670.505560254238	0.3
2621	2080	670.714127099011	0.2
2621	2085	671.022751113481	0.3
2621	3147	990.1	0.1
2621	3150	990.3	0.2
2621	3155	990.50365914066	0.2
2621	3159	990.710329274748	0.2
2621	4230	1310.1	0.1
2621	4234	1310.4	0.3
2621	4239	1310.708297925367	0.3
2621	4248	1310.939146800868	0.2
2621	5298	1630	0
2621	5301	1630.2	0.2
2621	5306	1630.505328605754	0.3
2621	5310	1630.706379059147	0.2
2621	6326	1950.2	0.2
2621	6330	1950.5	0.3
2621	6335	1950.806706823513	0.3
2621	6340	1951.021402770417	0.2
2621	7393	2270.1	0.1
2621	7397	2270.306445940276	0.2
2621	7402	2270.518105253094	0.2
2621	7406	2270.722793906597	0.2
2621	8439	2590	0
2621	8442	2590.2	0.2
2621	8447	2590.503154697834	0.3
2621	8453	2590.721654009616	0.2
2621	9492	2910.2	0.2
2621	9497	2910.502560847958	0.3
2621	9502	2910.80406892382	0.3
2621	9507	2911.014775898804	0.2
2621	10543	3230.1	0.1
2621	10547	3230.4	0.3
2621	10552	3230.701060321291	0.3
2621	10562	3230.931970073667	0.2
2621	11594	3550.1	0.1
2621	11601	3550.316016580624	0.2
2621	11607	3550.625700808377	0.3
2621	11616	3550.854294030084	0.2
2621	12652	3870	0
2621	12656	3870.3	0.3
2621	12660	3870.508594089669	0.2
2621	12664	3870.714962524864	0.2
2621	13674	4190.2	0.2
2621	13678	4190.5	0.3
2621	13683	4190.805955709002	0.3
2621	13688	4191.11138229303	0.3
2621	14710	4510.3	0.3
2621	14713	4510.5	0.2
2621	14717	4510.709083917322	0.2
2621	14723	4511.015797016792	0.3
2621	15762	4830.1	0.1
2621	15766	4830.30640599868	0.2
2621	15771	4830.610595915079	0.3
2621	15776	4830.818461621835	0.2
2621	16771	5150.2	0.2
2621	16775	5150.407684249719	0.2
2621	16779	5150.616491562837	0.2
2621	16783	5150.823905667952	0.2
2621	17800	5470.1	0.1
2621	17804	5470.30015566894	0.2
2621	17808	5470.501038311632	0.2
2621	17816	5470.730286901049	0.2
2621	18879	5790.1	0.1
2621	18883	5790.4	0.3
2621	18888	5790.705291165176	0.3
2621	18893	5791.015171861694	0.3
2621	19938	6110.1	0.1
2621	19942	6110.4	0.3
2621	19946	6110.608891836756	0.2
2621	19951	6110.816789499574	0.2
2621	20962	6430.1	0.1
2621	20966	6430.307778331516	0.2
2621	20970	6430.51319095466	0.2
2621	20977	6430.825971370545	0.3
2621	22024	6750.2	0.2
2621	22027	6750.4	0.2
2621	22032	6750.607987733466	0.2
2621	22036	6750.815340616068	0.2
2621	23044	7070.3	0.3
2621	23047	7070.5	0.2
2621	23053	7070.708658652104	0.2
2621	23057	7070.909677594763	0.2
2621	24080	7390	0
2621	24083	7390.2	0.2
2621	24088	7390.409577753795	0.2
2621	24092	7390.615792741048	0.2
2621	25102	7710.3	0.3
2621	25106	7710.6	0.3
2621	25112	7710.813379996275	0.2
2621	25117	7711.027391008634	0.2
2621	26154	8030	0
2621	26158	8030.3	0.3
2621	26162	8030.509964516395	0.2
2621	26169	8030.827497665163	0.3
2621	27142	8350.2	0.2
2621	27146	8350.5	0.3
2621	27151	8350.803733314576	0.3
2621	27155	8351.005933851597	0.2
2621	28179	8670.1	0.1
2621	28184	8670.405007902663	0.3
2621	28188	8670.614833705029	0.2
2621	28207	8670.887197946269	0.2
2621	29250	8990.2	0.2
2621	29254	8990.5	0.3
2621	29259	8990.709707227178	0.2
2621	29264	8990.923723286206	0.2
2621	30309	9310.1	0.1
2621	30314	9310.403574812533	0.3
2621	30319	9310.710276646657	0.3
2621	30323	9310.917802353576	0.2
2621	31352	9630.3	0.3
2621	31355	9630.5	0.2
2621	31362	9630.722153888655	0.2
2621	31368	9630.937475034084	0.2
2621	32405	9950.2	0.2
2621	32410	9950.504062964098	0.3
2621	32417	9950.726845164217	0.2
2621	32425	9951.053506137671	0.3
2621	33455	10270.3	0.3
2621	33460	10270.609928636241	0.3
2621	33464	10270.817713720348	0.2
2621	33468	10271.024688047786	0.2
2621	34513	10590.1	0.1
2621	34518	10590.408722320857	0.3
2621	34522	10590.618379184674	0.2
2621	34526	10590.821765674679	0.2
2621	35556	10910.1	0.1
2621	35560	10910.4	0.3
2621	35565	10910.704417236673	0.3
2621	35576	10910.94936593789	0.2
2621	36600	11230.2	0.2
2621	36608	11230.423511872984	0.2
2621	36612	11230.630072219554	0.2
2621	36617	11230.933887857392	0.3
2621	37646	11550.2	0.2
2621	37649	11550.4	0.2
2621	37654	11550.707724999724	0.3
2621	37659	11550.92652519977	0.2
2621	38697	11870.2	0.2
2621	38700	11870.4	0.2
2621	38704	11870.605542684802	0.2
2621	38710	11870.917689858217	0.3
2621	39749	12190	0
2621	39753	12190.3	0.3
2621	39757	12190.500530186712	0.2
2621	39762	12190.707771453491	0.2
2621	40797	12510.1	0.1
2621	40800	12510.3	0.2
2621	40805	12510.514829966562	0.2
2621	40809	12510.718039749943	0.2
2621	41835	12830.2	0.2
2621	41838	12830.4	0.2
2621	41842	12830.60363144617	0.2
2621	41847	12830.911803800775	0.3
2621	42842	13150.1	0.1
2621	42846	13150.4	0.3
2621	42851	13150.707476618285	0.3
2621	42861	13151.055920413005	0.3
2621	43908	13470.2	0.2
2621	43912	13470.405061781101	0.2
2621	43918	13470.711300400541	0.3
2621	43925	13471.02528692506	0.3
2621	44961	13790.1	0.1
2621	44966	13790.403121806296	0.3
2621	44972	13790.625553813626	0.2
2621	44985	13790.981103304005	0.3
2621	46015	14110.2	0.2
2621	46019	14110.5	0.3
2621	46025	14110.812448835472	0.3
2621	46031	14111.016961791182	0.2
2621	47073	14430.3	0.3
2621	47076	14430.5	0.2
2621	47083	14430.724468635673	0.2
2621	47093	14430.965202748298	0.2
2621	48116	14750.1	0.1
2621	48119	14750.3	0.2
2621	48123	14750.505393885045	0.2
2621	48128	14750.709766096956	0.2
2621	49160	15070.1	0.1
2621	49164	15070.4	0.3
2621	49168	15070.604123530993	0.2
2621	49173	15070.822545103095	0.2
2621	50247	15390.1	0.1
2621	50252	15390.313235828824	0.2
2621	50258	15390.537251713918	0.2
2621	50265	15390.850598698936	0.3
2621	51324	15710.1	0.1
2621	51327	15710.3	0.2
2621	51332	15710.609929276041	0.3
2621	51337	15710.826484477144	0.2
2621	52354	16030.1	0.1
2621	52359	16030.305488325957	0.2
2621	52365	16030.52574280387	0.2
2621	52369	16030.732282703611	0.2
2621	53388	16350.1	0.1
2621	53391	16350.3	0.2
2621	53397	16350.60780077798	0.3
2621	53402	16350.822312531735	0.2
2621	54452	16670.1	0.1
2621	54456	16670.4	0.3
2621	54460	16670.603419364418	0.2
2621	54465	16670.810430040132	0.2
2621	55488	16990.1	0.1
2621	55491	16990.3	0.2
2621	55495	16990.501780215909	0.2
2621	55499	16990.704053885438	0.2
2621	56566	17310.3	0.3
2621	56571	17310.609517134532	0.3
2621	56577	17310.918129409196	0.3
2621	56582	17311.12392837597	0.2
2621	57620	17630.2	0.2
2621	57624	17630.5	0.3
2621	57628	17630.708541616266	0.2
2621	57632	17630.914250392056	0.2
2621	58651	17950.1	0.1
2621	58654	17950.3	0.2
2621	58660	17950.611724846737	0.3
2621	58677	17950.990999570605	0.3
2621	59686	18270.1	0.1
2621	59690	18270.4	0.3
2621	59694	18270.608421495889	0.2
2621	59700	18270.924566726899	0.3
2621	60701	18590.1	0.1
2621	60705	18590.4	0.3
2621	60713	18590.717730317202	0.3
2621	60718	18590.928364443445	0.2
2621	61716	18910.1	0.1
2621	61721	18910.409952013415	0.3
2621	61727	18910.721886221746	0.3
2621	61731	18910.931335808784	0.2
2621	62760	19230.1	0.1
2621	62764	19230.300921596407	0.2
2621	62769	19230.603473041108	0.3
2621	62773	19230.805348596872	0.2
2621	63769	19550.2	0.2
2621	63773	19550.5	0.3
2621	63778	19550.808813021166	0.3
2621	63782	19551.01668044398	0.2
2621	64790	19870.1	0.1
2621	64793	19870.3	0.2
2621	64797	19870.509723402203	0.2
2621	64805	19870.735180709317	0.2
2621	65804	20190.2	0.2
2621	65807	20190.4	0.2
2621	65813	20190.706697407374	0.3
2621	65834	20190.997492181712	0.2
2622	65	40	0
2622	69	40.3	2
2622	73	40.508494349436	1
2622	77	40.716953365585	1
2622	1080	360.1	1
2622	1084	360.301132343402	1
2622	1089	360.605811883446	2
2622	1101	360.842567403713	1
2622	2103	680.2	2
2622	2108	680.409767073809	1
2622	2116	680.631330522296	1
2622	2120	680.836291266567	1
2622	3177	1000.2	2
2622	3180	1000.4	1
2622	3184	1000.604485723997	1
2622	3188	1000.806504373284	1
2622	4265	1320.1	1
2622	4269	1320.4	2
2622	4274	1320.707504425039	2
2622	4279	1320.918219421286	1
2622	5327	1640.1	1
2622	5330	1640.3	1
2622	5335	1640.605587023114	2
2622	5339	1640.806900724115	1
2622	6357	1960.1	1
2622	6361	1960.4	2
2622	6365	1960.607695044556	1
2622	6369	1960.811677179802	1
2622	7423	2280.1	1
2622	7427	2280.305592296388	1
2622	7432	2280.613930013532	2
2622	7442	2280.853520345877	1
2622	8469	2600	0
2622	8473	2600.20023912894	1
2622	8482	2600.518459274128	2
2622	8492	2600.754612567917	1
2622	9524	2920.1	1
2622	9528	2920.4	2
2622	9532	2920.608784372089	1
2622	9542	2920.941302709134	2
2622	10579	3240.1	1
2622	10584	3240.400746169057	2
2622	10591	3240.623323519656	1
2622	10595	3240.833089303395	1
2622	11634	3560.2	2
2622	11639	3560.505465974898	2
2622	11644	3560.718881901829	1
2622	11650	3561.031575845338	2
2622	12681	3880.1	1
2622	12684	3880.3	1
2622	12690	3880.609549223463	2
2622	12697	3880.828741300635	1
2622	13704	4200	0
2622	13709	4200.308117428848	2
2622	13715	4200.524224560112	1
2622	13720	4200.735041045353	1
2622	14741	4520.2	2
2622	14748	4520.430171433141	1
2622	14753	4520.737148070368	2
2622	14761	4520.965188322623	1
2622	15792	4840	0
2622	15796	4840.3	2
2622	15801	4840.600821143866	2
2622	15806	4840.816267475824	1
2622	16801	5160.2	2
2622	16804	5160.4	1
2622	16808	5160.609062061004	1
2622	16812	5160.810933007659	1
2622	17833	5480.1	1