version 2
run Stability-68-20130528-00:54:35-21385
attr configname Stability
attr datetime 20130528-00:54:35
attr experiment Stability
attr inifile omnetpp.ini
attr iterationvars $0=1e0
attr iterationvars2 "$0=1e0, $repetition=8"
attr measurement $0=1e0
attr network Network
attr processid 21385
attr repetition 8
attr replication #8
attr resultdir results
attr runnumber 68
attr seedset 68

vector 6692  Network.churner  inGoingSizeSig:vector  ETV
vector 6596  Network.dyn_peer[0]  lookupHopsSig:vector  ETV
vector 6597  Network.dyn_peer[0]  lookupStabilitySig:vector  ETV
vector 6598  Network.dyn_peer[0]  lookupTimeSig:vector  ETV
vector 6599  Network.dyn_peer[1]  lookupHopsSig:vector  ETV
vector 6600  Network.dyn_peer[1]  lookupStabilitySig:vector  ETV
vector 6601  Network.dyn_peer[1]  lookupTimeSig:vector  ETV
vector 6659  Network.dyn_peer[21]  lookupHopsSig:vector  ETV
vector 6660  Network.dyn_peer[21]  lookupStabilitySig:vector  ETV
vector 6661  Network.dyn_peer[21]  lookupTimeSig:vector  ETV
vector 6686  Network.dyn_peer[30]  lookupHopsSig:vector  ETV
vector 6687  Network.dyn_peer[30]  lookupStabilitySig:vector  ETV
vector 6688  Network.dyn_peer[30]  lookupTimeSig:vector  ETV
vector 6602  Network.dyn_peer[2]  lookupHopsSig:vector  ETV
vector 6603  Network.dyn_peer[2]  lookupStabilitySig:vector  ETV
vector 6604  Network.dyn_peer[2]  lookupTimeSig:vector  ETV
vector 6629  Network.dyn_peer[11]  lookupHopsSig:vector  ETV
vector 6630  Network.dyn_peer[11]  lookupStabilitySig:vector  ETV
vector 6631  Network.dyn_peer[11]  lookupTimeSig:vector  ETV
vector 6635  Network.dyn_peer[13]  lookupHopsSig:vector  ETV
vector 6636  Network.dyn_peer[13]  lookupStabilitySig:vector  ETV
vector 6637  Network.dyn_peer[13]  lookupTimeSig:vector  ETV
vector 6638  Network.dyn_peer[14]  lookupHopsSig:vector  ETV
vector 6639  Network.dyn_peer[14]  lookupStabilitySig:vector  ETV
vector 6640  Network.dyn_peer[14]  lookupTimeSig:vector  ETV
vector 6671  Network.dyn_peer[25]  lookupHopsSig:vector  ETV
vector 6672  Network.dyn_peer[25]  lookupStabilitySig:vector  ETV
vector 6673  Network.dyn_peer[25]  lookupTimeSig:vector  ETV
vector 6683  Network.dyn_peer[29]  lookupHopsSig:vector  ETV
vector 6684  Network.dyn_peer[29]  lookupStabilitySig:vector  ETV
vector 6685  Network.dyn_peer[29]  lookupTimeSig:vector  ETV
vector 6605  Network.dyn_peer[3]  lookupHopsSig:vector  ETV
vector 6606  Network.dyn_peer[3]  lookupStabilitySig:vector  ETV
vector 6607  Network.dyn_peer[3]  lookupTimeSig:vector  ETV
vector 6608  Network.dyn_peer[4]  lookupHopsSig:vector  ETV
vector 6609  Network.dyn_peer[4]  lookupStabilitySig:vector  ETV
vector 6610  Network.dyn_peer[4]  lookupTimeSig:vector  ETV
vector 6611  Network.dyn_peer[5]  lookupHopsSig:vector  ETV
vector 6612  Network.dyn_peer[5]  lookupStabilitySig:vector  ETV
vector 6613  Network.dyn_peer[5]  lookupTimeSig:vector  ETV
vector 6614  Network.dyn_peer[6]  lookupHopsSig:vector  ETV
vector 6615  Network.dyn_peer[6]  lookupStabilitySig:vector  ETV
vector 6616  Network.dyn_peer[6]  lookupTimeSig:vector  ETV
vector 6617  Network.dyn_peer[7]  lookupHopsSig:vector  ETV
vector 6618  Network.dyn_peer[7]  lookupStabilitySig:vector  ETV
vector 6619  Network.dyn_peer[7]  lookupTimeSig:vector  ETV
vector 6620  Network.dyn_peer[8]  lookupHopsSig:vector  ETV
vector 6621  Network.dyn_peer[8]  lookupStabilitySig:vector  ETV
vector 6622  Network.dyn_peer[8]  lookupTimeSig:vector  ETV
vector 6626  Network.dyn_peer[10]  lookupHopsSig:vector  ETV
vector 6627  Network.dyn_peer[10]  lookupStabilitySig:vector  ETV
vector 6628  Network.dyn_peer[10]  lookupTimeSig:vector  ETV
vector 6632  Network.dyn_peer[12]  lookupHopsSig:vector  ETV
vector 6633  Network.dyn_peer[12]  lookupStabilitySig:vector  ETV
vector 6634  Network.dyn_peer[12]  lookupTimeSig:vector  ETV
vector 6644  Network.dyn_peer[16]  lookupHopsSig:vector  ETV
vector 6645  Network.dyn_peer[16]  lookupStabilitySig:vector  ETV
vector 6646  Network.dyn_peer[16]  lookupTimeSig:vector  ETV
vector 6647  Network.dyn_peer[17]  lookupHopsSig:vector  ETV
vector 6648  Network.dyn_peer[17]  lookupStabilitySig:vector  ETV
vector 6649  Network.dyn_peer[17]  lookupTimeSig:vector  ETV
vector 6665  Network.dyn_peer[23]  lookupHopsSig:vector  ETV
vector 6666  Network.dyn_peer[23]  lookupStabilitySig:vector  ETV
vector 6667  Network.dyn_peer[23]  lookupTimeSig:vector  ETV
vector 6623  Network.dyn_peer[9]  lookupHopsSig:vector  ETV
vector 6624  Network.dyn_peer[9]  lookupStabilitySig:vector  ETV
vector 6625  Network.dyn_peer[9]  lookupTimeSig:vector  ETV
vector 6656  Network.dyn_peer[20]  lookupHopsSig:vector  ETV
vector 6657  Network.dyn_peer[20]  lookupStabilitySig:vector  ETV
vector 6658  Network.dyn_peer[20]  lookupTimeSig:vector  ETV
vector 6662  Network.dyn_peer[22]  lookupHopsSig:vector  ETV
vector 6663  Network.dyn_peer[22]  lookupStabilitySig:vector  ETV
vector 6664  Network.dyn_peer[22]  lookupTimeSig:vector  ETV
vector 6668  Network.dyn_peer[24]  lookupHopsSig:vector  ETV
vector 6669  Network.dyn_peer[24]  lookupStabilitySig:vector  ETV
vector 6670  Network.dyn_peer[24]  lookupTimeSig:vector  ETV
vector 6674  Network.dyn_peer[26]  lookupHopsSig:vector  ETV
vector 6675  Network.dyn_peer[26]  lookupStabilitySig:vector  ETV
vector 6676  Network.dyn_peer[26]  lookupTimeSig:vector  ETV
vector 6680  Network.dyn_peer[28]  lookupHopsSig:vector  ETV
vector 6681  Network.dyn_peer[28]  lookupStabilitySig:vector  ETV
vector 6682  Network.dyn_peer[28]  lookupTimeSig:vector  ETV
vector 6650  Network.dyn_peer[18]  lookupHopsSig:vector  ETV
vector 6651  Network.dyn_peer[18]  lookupStabilitySig:vector  ETV
vector 6652  Network.dyn_peer[18]  lookupTimeSig:vector  ETV
vector 6653  Network.dyn_peer[19]  lookupHopsSig:vector  ETV
vector 6654  Network.dyn_peer[19]  lookupStabilitySig:vector  ETV
vector 6655  Network.dyn_peer[19]  lookupTimeSig:vector  ETV
vector 6641  Network.dyn_peer[15]  lookupHopsSig:vector  ETV
vector 6642  Network.dyn_peer[15]  lookupStabilitySig:vector  ETV
vector 6643  Network.dyn_peer[15]  lookupTimeSig:vector  ETV
vector 6689  Network.dyn_peer[31]  lookupHopsSig:vector  ETV
vector 6690  Network.dyn_peer[31]  lookupStabilitySig:vector  ETV
vector 6691  Network.dyn_peer[31]  lookupTimeSig:vector  ETV
vector 6677  Network.dyn_peer[27]  lookupHopsSig:vector  ETV
vector 6678  Network.dyn_peer[27]  lookupStabilitySig:vector  ETV
vector 6679  Network.dyn_peer[27]  lookupTimeSig:vector  ETV
6596	28	20.001	0
6596	386	20.502611255956	4
6596	621	20.914945032184	3
6596	799	21.116045032184	2
6596	1190	21.516045032184	3
6596	1354	21.620859377833	1
6596	1845	22.020859377833	3
6596	1955	22.13560910431	4
6596	2263	22.444631081286	2
6596	2998	23.045857284457	6
6596	3467	23.450552351147	3
6596	3672	23.658762005586	1
6596	3718	23.73280909126	7
6596	4584	24.439184444718	7
6596	5665	25.248211774042	7
6596	6367	25.851770826161	5
6596	6687	26.061016047529	1
6596	7081	26.364748680326	3
6596	7737	26.865848680326	6
6596	8440	27.365848680326	4
6596	9036	27.775302079756	3
6596	9183	27.907882090316	3
6596	9663	28.282545844978	4
6596	10535	28.984647802046	8
6596	11061	29.484647802046	4
6596	11279	29.665756494576	4
6596	11730	30.088250346394	5
6596	11740	30.091193817182	2
6596	12083	30.375300536687	6
6596	12200	30.49673587956	3
6596	12208	30.499527375263	3
6596	12387	30.601467081849	2
6596	12874	31.001467081849	3
6596	13138	31.202567081849	3
6596	13515	31.502567081849	2
6596	13638	31.615664299647	1
6596	13841	31.806744410562	2
6596	13879	31.811098052539	0
6596	14393	32.311098052539	4
6596	14704	32.563809256317	5
6596	14963	32.766250509915	2
6596	15702	33.373756977209	5
6596	16402	33.983113408419	6
6596	16968	34.483113408419	4
6596	17418	34.888206175088	3
6596	18042	35.391420454778	4
6596	18051	35.396179685226	4
6596	18204	35.506886335539	1
6596	19244	36.31516625792	7
6596	19763	36.715453208251	3
6596	20151	37.017430645119	3
6596	20289	37.121239093153	3
6596	20741	37.522339093153	4
6596	21493	38.122339093153	5
6596	21829	38.429961798245	2
6596	22500	38.933617467184	5
6596	22507	38.937200401365	5
6596	22905	39.2374367796	2
6596	22912	39.241225550563	2
6596	23168	39.445541480716	2
6596	23171	39.448729730245	2
6596	23512	39.695333589024	7
6596	23619	39.791225713945	4
6596	24082	40.198836945592	3
6596	24189	40.251741605988	8
6596	24192	40.253932535249	8
6596	24355	40.358570001807	1
6596	25209	41.058570001807	6
6596	26681	42.363289481986	14
6596	27347	42.963289481986	5
6596	27652	43.271854389619	2
6596	28344	43.872914132053	5
6596	28391	43.924971916804	5
6596	28564	44.032095163068	1
6596	29057	44.432095163068	3
6596	29719	44.938594201115	5
6596	29741	44.942953142677	4
6596	30868	45.750730942077	8
6596	30898	45.754235597464	8
6596	32218	46.954798914973	11
6596	32684	47.35623512374	3
6596	32686	47.356388359404	3
6596	32961	47.558284175397	1
6596	32975	47.565760159937	1
6596	33043	47.631731983247	1
6596	33074	47.65755140425	20
6596	33285	47.832428814813	1
6596	33438	47.968167980486	3
6596	33446	47.969910781488	3
6596	33878	48.276604642445	3
6596	34420	48.714390250177	0
6596	34812	49.114390250177	3
6596	35389	49.615564809283	5
6596	35482	49.687904574551	4
6596	35789	49.923354554765	2
6596	35860	50.004154053589	3
6596	35935	50.083399421779	2
6596	36186	50.2924889902	2
6596	36390	50.49296640535	1
6596	37172	51.20060979931	6
6596	37488	51.49508402693	1
6596	37495	51.502225152005	2
6596	37759	51.696812545029	1
6596	38029	51.907203240643	3
6596	38493	52.312139456149	4
6596	39331	53.012139456149	6
6596	40597	54.120432737178	12
6596	40635	54.160660692257	11
6596	41321	54.670180043045	6
6596	41594	54.870180043045	1
6596	42385	55.481168265884	5
6596	42891	55.9829306506	4
6596	42901	56.000866751222	4
6596	43100	56.191561079235	1
6596	43241	56.309441827207	2
6596	43353	56.402248624287	1
6596	43658	56.703157305026	2
6596	43809	56.82439344277	4
6596	43872	56.864239085668	4
6596	44206	57.167015767147	3
6596	45271	58.167015767147	10
6596	45673	58.476019501435	2
6596	45978	58.679523806642	1
6596	46350	58.956364273567	4
6596	46388	58.986834498852	3
6596	47099	59.589261768306	6
6596	47610	60.089261768306	4
6596	48301	60.6936898403	7
6596	48309	60.702681161344	5
6596	48552	60.903781161344	2
6596	48858	61.103781161344	1
6596	49392	61.504267528181	3
6596	49559	61.605367528181	1
6596	49958	61.905367528181	3
6596	51010	62.707952751651	8
6596	51291	62.916030810683	1
6596	51414	63.021250484014	10
6596	52124	63.524124584326	5
6596	52622	63.933468217404	3
6596	53007	64.237823104785	2
6596	53522	64.638149984973	5
6596	53566	64.687183639269	2
6596	53628	64.714528782314	0
6596	53814	64.835273589155	3
6596	53949	64.939407146912	1
6596	54320	65.245168473835	3
6596	54323	65.24696719663	6
6596	54325	65.247316732638	2
6596	54480	65.387239017157	6
6596	54952	65.698244939609	3
6596	57190	67.498244939609	20
6596	58157	68.304440647255	8
6596	59247	69.179870461136	2
6596	59914	69.679870461136	4
6596	60970	70.495441567753	6
6596	61281	70.786175452763	12
6596	61422	70.903860290382	3
6596	61704	71.106629701889	2
6596	62366	71.606629701889	4
6596	63096	72.088857226512	3
6596	63575	72.493159129776	3
6596	64350	73.219562000905	2
6596	65013	73.819562000905	5
6596	65335	74.109870927456	3
6596	65800	74.512628253564	3
6596	66100	74.739852111738	8
6596	67179	75.544539665369	9
6596	67537	75.844539665369	2
6596	68550	76.725153805059	3
6596	68791	76.925153805059	1
6596	69100	77.227018285767	3
6596	69495	77.527018285767	2
6596	71764	79.428118285767	20
6596	72549	80.128118285767	7
6596	72985	80.433548187217	2
6596	73329	80.644351721635	1
6596	73581	80.795466843923	4
6596	73863	80.984510112795	0
6596	74540	81.584510112795	5
6596	75031	82.03535112076	5
6596	75399	82.338507581569	2
6596	75464	82.388368751573	7
6596	76297	83.096846834388	8
6596	77875	84.396846834388	14
6596	79041	85.500713821728	10
6596	79290	85.728501535152	12
6596	80527	86.636418772875	10
6596	81869	87.936418772875	13
6596	82423	88.338835984704	5
6596	82669	88.538835984704	1
6596	83010	88.839935984704	3
6596	83487	89.239935984704	3
6596	84883	90.345486125832	11
6596	86176	91.345486125832	12
6596	86734	91.788066561975	2
6596	86941	91.990299324466	1
6596	87364	92.327565869189	2
6596	87538	92.493687337071	4
6596	88628	93.399176888599	11
6596	89595	94.299176888599	9
6596	89937	94.60165631613	2
6596	89960	94.642127626456	1
6596	90191	94.80943716441	1
6596	90472	95.049336437782	3
6596	90708	95.218163151611	3
6596	90976	95.423337023807	2
6596	92028	96.31741895195	4
6596	92375	96.61741895195	2
6596	93241	97.428866859729	7
6596	93918	97.939237435415	5
6596	94443	98.339237435415	4
6596	94835	98.644490607265	2
6596	95528	99.247397466456	5
6596	95892	99.547403678817	3
6596	96180	99.763293468777	5
6596	96360	99.941035900551	12
6596	96725	100.247043072054	2
6596	96741	100.25265263618	1
6596	97422	100.85375263618	6
6596	98158	101.45375263618	5
6596	98486	101.759621967863	2
6596	99139	102.366074838027	5
6596	99622	102.775325242994	4
6596	99836	102.979331704129	1
6596	100181	103.280726120381	3
6596	100337	103.394019416941	3
6596	101308	104.101990493025	8
6596	101665	104.401990493025	2
6596	101854	104.610964227836	1
6596	102275	104.913489493729	3
6596	102888	105.413489493729	4
6596	103064	105.519325022815	3
6596	103250	105.63838920852	3
6596	103404	105.729516851216	1
6596	103657	105.921972329513	7
6596	103659	105.923067820059	2
6596	104019	106.224167820059	3
6596	104952	106.926670695936	2
6596	105464	107.334219502183	4
6596	106064	107.93938527286	5
6596	106816	108.640633400418	8
6596	107332	109.140633400418	4
6596	107936	109.641818123792	5
6596	108803	110.446820634129	9
6596	109235	110.846820634129	3
6596	109570	111.147668025941	2
6596	109773	111.353153356232	1
6596	109776	111.355001439362	1
6596	110033	111.558322795136	2
6596	110445	111.958322795136	3
6596	110693	112.15887404741	1
6596	111461	112.767466252752	6
6596	111516	112.802029468929	6
6596	112142	113.212063273366	3
6596	112479	113.414088422271	2
6596	112610	113.515188422271	1
6596	113174	114.015188422271	4
6596	114408	115.121578913086	9
6596	114730	115.373246537184	2
6596	114776	115.426718845464	2
6596	115046	115.631085555187	2
6596	115650	116.231085555187	5
6596	116384	116.938943782147	6
6596	116920	117.342219584517	3
6596	117059	117.4715813428	3
6596	117243	117.654870623019	2
6596	117487	117.880243113634	3
6596	117722	118.089353036843	2
6596	118429	118.684138779522	1
6596	119363	119.385238779522	7
6596	120137	120.085238779522	6
6596	120456	120.387677638441	3
6596	121237	121.091273554527	8
6596	121864	121.611654339379	4
6596	122050	121.760457400873	2
6596	122494	122.062831743908	3
6596	123110	122.562831743908	5
6596	123446	122.868049239275	2
6596	123652	123.069174477212	1
6596	123916	123.291356151564	1
6596	124805	123.994477468275	7
6596	125281	124.394477468275	3
6596	125684	124.700950569497	3
6596	126351	125.200950569497	4
6596	127607	126.364721624729	2
6596	127741	126.503136379297	14
6596	128135	126.804331014664	3
6596	128551	127.169353578619	0
6596	128881	127.478441690204	2
6596	129259	127.778732268481	2
6596	129708	128.06700483701	6
6596	129732	128.104331014664	14
6596	129946	128.286489463058	4
6596	131248	129.290406310995	13
6596	131865	129.890406310995	5
6596	132708	130.585056456525	6
6596	132890	130.698091173652	9
6596	132983	130.787850218834	1
6596	133612	131.194244358051	4
6596	134006	131.494244358051	2
6596	134679	131.997902633038	5
6596	135303	132.505967187786	4
6596	135584	132.714803298302	6
6596	136290	133.22441834638	4
6596	136378	133.308684163815	8
6596	136430	133.335464331696	4
6596	136535	133.43805427545	9
6596	136879	133.736438101578	3
6596	136884	133.742403050066	2
6596	137015	133.846105988211	1
6596	137255	134.046105988211	1
6596	137899	134.647205988211	8
6596	138730	135.447209595219	1
6597	28	20.001	1
6597	386	20.502611255956	0.5
6597	621	20.914945032184	0.625
6597	799	21.116045032184	0.75
6597	1190	21.516045032184	0.625
6597	1354	21.620859377833	0.875
6597	1845	22.020859377833	0.625
6597	1955	22.13560910431	0.5
6597	2263	22.444631081286	0.75
6597	2998	23.045857284457	0.25
6597	3467	23.450552351147	0.625
6597	3672	23.658762005586	0.875
6597	3718	23.73280909126	0.125
6597	4584	24.439184444718	0.125
6597	5665	25.248211774042	0.125
6597	6367	25.851770826161	0.375
6597	6687	26.061016047529	0.875
6597	7081	26.364748680326	0.625
6597	7737	26.865848680326	0.25
6597	8440	27.365848680326	0.5
6597	9036	27.775302079756	0.625
6597	9183	27.907882090316	0.625
6597	9663	28.282545844978	0.5
6597	10535	28.984647802046	0
6597	11061	29.484647802046	0.5
6597	11279	29.665756494576	0.5
6597	11730	30.088250346394	0.375
6597	11740	30.091193817182	0.75
6597	12083	30.375300536687	0.25
6597	12200	30.49673587956	0.625
6597	12208	30.499527375263	0.625
6597	12387	30.601467081849	0.75
6597	12874	31.001467081849	0.625
6597	13138	31.202567081849	0.625
6597	13515	31.502567081849	0.75
6597	13638	31.615664299647	0.875
6597	13841	31.806744410562	0.75
6597	13879	31.811098052539	1
6597	14393	32.311098052539	0.5
6597	14704	32.563809256317	0.375
6597	14963	32.766250509915	0.75
6597	15702	33.373756977209	0.375
6597	16402	33.983113408419	0.25
6597	16968	34.483113408419	0.5
6597	17418	34.888206175088	0.625
6597	18042	35.391420454778	0.5
6597	18051	35.396179685226	0.5
6597	18204	35.506886335539	0.875
6597	19244	36.31516625792	0.125
6597	19763	36.715453208251	0.625
6597	20151	37.017430645119	0.625
6597	20289	37.121239093153	0.625
6597	20741	37.522339093153	0.5
6597	21493	38.122339093153	0.375
6597	21829	38.429961798245	0.75
6597	22500	38.933617467184	0.375
6597	22507	38.937200401365	0.375
6597	22905	39.2374367796	0.75
6597	22912	39.241225550563	0.75
6597	23168	39.445541480716	0.75
6597	23171	39.448729730245	0.75
6597	23512	39.695333589024	0.125
6597	23619	39.791225713945	0.5
6597	24082	40.198836945592	0.625
6597	24189	40.251741605988	0
6597	24192	40.253932535249	0
6597	24355	40.358570001807	0.875
6597	25209	41.058570001807	0.25
6597	26681	42.363289481986	-0.75
6597	27347	42.963289481986	0.375
6597	27652	43.271854389619	0.75
6597	28344	43.872914132053	0.375
6597	28391	43.924971916804	0.375
6597	28564	44.032095163068	0.875
6597	29057	44.432095163068	0.625
6597	29719	44.938594201115	0.375
6597	29741	44.942953142677	0.5
6597	30868	45.750730942077	0
6597	30898	45.754235597464	0
6597	32218	46.954798914973	-0.375
6597	32684	47.35623512374	0.625
6597	32686	47.356388359404	0.625
6597	32961	47.558284175397	0.875
6597	32975	47.565760159937	0.875
6597	33043	47.631731983247	0.875
6597	33074	47.65755140425	-1.5
6597	33285	47.832428814813	0.875
6597	33438	47.968167980486	0.625
6597	33446	47.969910781488	0.625
6597	33878	48.276604642445	0.625
6597	34420	48.714390250177	1
6597	34812	49.114390250177	0.625
6597	35389	49.615564809283	0.375
6597	35482	49.687904574551	0.5
6597	35789	49.923354554765	0.75
6597	35860	50.004154053589	0.625
6597	35935	50.083399421779	0.75
6597	36186	50.2924889902	0.75
6597	36390	50.49296640535	0.875
6597	37172	51.20060979931	0.25
6597	37488	51.49508402693	0.875
6597	37495	51.502225152005	0.75
6597	37759	51.696812545029	0.875
6597	38029	51.907203240643	0.625
6597	38493	52.312139456149	0.5
6597	39331	53.012139456149	0.25
6597	40597	54.120432737178	-0.5
6597	40635	54.160660692257	-0.375
6597	41321	54.670180043045	0.25
6597	41594	54.870180043045	0.875
6597	42385	55.481168265884	0.375
6597	42891	55.9829306506	0.5
6597	42901	56.000866751222	0.5
6597	43100	56.191561079235	0.875
6597	43241	56.309441827207	0.75
6597	43353	56.402248624287	0.875
6597	43658	56.703157305026	0.75
6597	43809	56.82439344277	0.5
6597	43872	56.864239085668	0.5
6597	44206	57.167015767147	0.625
6597	45271	58.167015767147	-0.25
6597	45673	58.476019501435	0.75
6597	45978	58.679523806642	0.875
6597	46350	58.956364273567	0.5
6597	46388	58.986834498852	0.625
6597	47099	59.589261768306	0.25
6597	47610	60.089261768306	0.5
6597	48301	60.6936898403	0.125
6597	48309	60.702681161344	0.375
6597	48552	60.903781161344	0.75
6597	48858	61.103781161344	0.875
6597	49392	61.504267528181	0.625
6597	49559	61.605367528181	0.875
6597	49958	61.905367528181	0.625
6597	51010	62.707952751651	0
6597	51291	62.916030810683	0.875
6597	51414	63.021250484014	-0.25
6597	52124	63.524124584326	0.375
6597	52622	63.933468217404	0.625
6597	53007	64.237823104785	0.75
6597	53522	64.638149984973	0.375
6597	53566	64.687183639269	0.75
6597	53628	64.714528782314	1
6597	53814	64.835273589155	0.625
6597	53949	64.939407146912	0.875
6597	54320	65.245168473835	0.625
6597	54323	65.24696719663	0.25
6597	54325	65.247316732638	0.75
6597	54480	65.387239017157	0.25
6597	54952	65.698244939609	0.625
6597	57190	67.498244939609	-1.5
6597	58157	68.304440647255	0
6597	59247	69.179870461136	0.75
6597	59914	69.679870461136	0.5
6597	60970	70.495441567753	0.25
6597	61281	70.786175452763	-0.5
6597	61422	70.903860290382	0.625
6597	61704	71.106629701889	0.75
6597	62366	71.606629701889	0.5
6597	63096	72.088857226512	0.625
6597	63575	72.493159129776	0.625
6597	64350	73.219562000905	0.75
6597	65013	73.819562000905	0.375
6597	65335	74.109870927456	0.625
6597	65800	74.512628253564	0.625
6597	66100	74.739852111738	0
6597	67179	75.544539665369	-0.125
6597	67537	75.844539665369	0.75
6597	68550	76.725153805059	0.625
6597	68791	76.925153805059	0.875
6597	69100	77.227018285767	0.625
6597	69495	77.527018285767	0.75
6597	71764	79.428118285767	-1.5
6597	72549	80.128118285767	0.125
6597	72985	80.433548187217	0.75
6597	73329	80.644351721635	0.875
6597	73581	80.795466843923	0.5
6597	73863	80.984510112795	1
6597	74540	81.584510112795	0.375
6597	75031	82.03535112076	0.375
6597	75399	82.338507581569	0.75
6597	75464	82.388368751573	0.125
6597	76297	83.096846834388	0
6597	77875	84.396846834388	-0.75
6597	79041	85.500713821728	-0.25
6597	79290	85.728501535152	-0.5
6597	80527	86.636418772875	-0.25
6597	81869	87.936418772875	-0.625
6597	82423	88.338835984704	0.375
6597	82669	88.538835984704	0.875
6597	83010	88.839935984704	0.625
6597	83487	89.239935984704	0.625
6597	84883	90.345486125832	-0.375
6597	86176	91.345486125832	-0.5
6597	86734	91.788066561975	0.75
6597	86941	91.990299324466	0.875
6597	87364	92.327565869189	0.75
6597	87538	92.493687337071	0.5
6597	88628	93.399176888599	-0.375
6597	89595	94.299176888599	-0.125
6597	89937	94.60165631613	0.75
6597	89960	94.642127626456	0.875
6597	90191	94.80943716441	0.875
6597	90472	95.049336437782	0.625
6597	90708	95.218163151611	0.625
6597	90976	95.423337023807	0.75
6597	92028	96.31741895195	0.5
6597	92375	96.61741895195	0.75
6597	93241	97.428866859729	0.125
6597	93918	97.939237435415	0.375
6597	94443	98.339237435415	0.5
6597	94835	98.644490607265	0.75
6597	95528	99.247397466456	0.375
6597	95892	99.547403678817	0.625
6597	96180	99.763293468777	0.375
6597	96360	99.941035900551	-0.5
6597	96725	100.247043072054	0.75
6597	96741	100.25265263618	0.875
6597	97422	100.85375263618	0.25
6597	98158	101.45375263618	0.375
6597	98486	101.759621967863	0.75
6597	99139	102.366074838027	0.375
6597	99622	102.775325242994	0.5
6597	99836	102.979331704129	0.875
6597	100181	103.280726120381	0.625
6597	100337	103.394019416941	0.625
6597	101308	104.101990493025	0
6597	101665	104.401990493025	0.75
6597	101854	104.610964227836	0.875
6597	102275	104.913489493729	0.625
6597	102888	105.413489493729	0.5
6597	103064	105.519325022815	0.625
6597	103250	105.63838920852	0.625
6597	103404	105.729516851216	0.875
6597	103657	105.921972329513	0.125
6597	103659	105.923067820059	0.75
6597	104019	106.224167820059	0.625
6597	104952	106.926670695936	0.75
6597	105464	107.334219502183	0.5
6597	106064	107.93938527286	0.375
6597	106816	108.640633400418	0
6597	107332	109.140633400418	0.5
6597	107936	109.641818123792	0.375
6597	108803	110.446820634129	-0.125
6597	109235	110.846820634129	0.625
6597	109570	111.147668025941	0.75
6597	109773	111.353153356232	0.875
6597	109776	111.355001439362	0.875
6597	110033	111.558322795136	0.75
6597	110445	111.958322795136	0.625
6597	110693	112.15887404741	0.875
6597	111461	112.767466252752	0.25
6597	111516	112.802029468929	0.25
6597	112142	113.212063273366	0.625
6597	112479	113.414088422271	0.75
6597	112610	113.515188422271	0.875
6597	113174	114.015188422271	0.5
6597	114408	115.121578913086	-0.125
6597	114730	115.373246537184	0.75
6597	114776	115.426718845464	0.75
6597	115046	115.631085555187	0.75
6597	115650	116.231085555187	0.375
6597	116384	116.938943782147	0.25
6597	116920	117.342219584517	0.625
6597	117059	117.4715813428	0.625
6597	117243	117.654870623019	0.75
6597	117487	117.880243113634	0.625
6597	117722	118.089353036843	0.75
6597	118429	118.684138779522	0.875
6597	119363	119.385238779522	0.125
6597	120137	120.085238779522	0.25
6597	120456	120.387677638441	0.625
6597	121237	121.091273554527	0
6597	121864	121.611654339379	0.5
6597	122050	121.760457400873	0.75
6597	122494	122.062831743908	0.625
6597	123110	122.562831743908	0.375
6597	123446	122.868049239275	0.75
6597	123652	123.069174477212	0.875
6597	123916	123.291356151564	0.875
6597	124805	123.994477468275	0.125
6597	125281	124.394477468275	0.625
6597	125684	124.700950569497	0.625
6597	126351	125.200950569497	0.5
6597	127607	126.364721624729	0.75
6597	127741	126.503136379297	-0.75
6597	128135	126.804331014664	0.625
6597	128551	127.169353578619	1
6597	128881	127.478441690204	0.75
6597	129259	127.778732268481	0.75
6597	129708	128.06700483701	0.25
6597	129732	128.104331014664	-0.75
6597	129946	128.286489463058	0.5
6597	131248	129.290406310995	-0.625
6597	131865	129.890406310995	0.375
6597	132708	130.585056456525	0.25
6597	132890	130.698091173652	-0.125
6597	132983	130.787850218834	0.875
6597	133612	131.194244358051	0.5
6597	134006	131.494244358051	0.75
6597	134679	131.997902633038	0.375
6597	135303	132.505967187786	0.5
6597	135584	132.714803298302	0.25
6597	136290	133.22441834638	0.5
6597	136378	133.308684163815	0
6597	136430	133.335464331696	0.5
6597	136535	133.43805427545	-0.125
6597	136879	133.736438101578	0.625
6597	136884	133.742403050066	0.75
6597	137015	133.846105988211	0.875
6597	137255	134.046105988211	0.875
6597	137899	134.647205988211	0
6597	138730	135.447209595219	0.875
6598	28	20.001	0
6598	386	20.502611255956	0.5
6598	621	20.914945032184	0.4
6598	799	21.116045032184	0.2
6598	1190	21.516045032184	0.4
6598	1354	21.620859377833	0.1
6598	1845	22.020859377833	0.4
6598	1955	22.13560910431	0.4
6598	2263	22.444631081286	0.3
6598	2998	23.045857284457	0.6
6598	3467	23.450552351147	0.4
6598	3672	23.658762005586	0.2
6598	3718	23.73280909126	0.8
6598	4584	24.439184444718	0.7
6598	5665	25.248211774042	0.8
6598	6367	25.851770826161	0.6
6598	6687	26.061016047529	0.2
6598	7081	26.364748680326	0.4
6598	7737	26.865848680326	0.5
6598	8440	27.365848680326	0.5
6598	9036	27.775302079756	0.4
6598	9183	27.907882090316	0.3
6598	9663	28.282545844978	0.5
6598	10535	28.984647802046	0.7
6598	11061	29.484647802046	0.5
6598	11279	29.665756494576	0.5
6598	11730	30.088250346394	0.6
6598	11740	30.091193817182	0.3
6598	12083	30.375300536687	0.7
6598	12200	30.49673587956	0.4
6598	12208	30.499527375263	0.4
6598	12387	30.601467081849	0.1
6598	12874	31.001467081849	0.4
6598	13138	31.202567081849	0.2
6598	13515	31.502567081849	0.3
6598	13638	31.615664299647	0.2
6598	13841	31.806744410562	0.3
6598	13879	31.811098052539	0
6598	14393	32.311098052539	0.5
6598	14704	32.563809256317	0.6
6598	14963	32.766250509915	0.2
6598	15702	33.373756977209	0.6
6598	16402	33.983113408419	0.6
6598	16968	34.483113408419	0.5
6598	17418	34.888206175088	0.4
6598	18042	35.391420454778	0.5
6598	18051	35.396179685226	0.5
6598	18204	35.506886335539	0.1
6598	19244	36.31516625792	0.8
6598	19763	36.715453208251	0.4
6598	20151	37.017430645119	0.4
6598	20289	37.121239093153	0.4
6598	20741	37.522339093153	0.4
6598	21493	38.122339093153	0.6
6598	21829	38.429961798245	0.3
6598	22500	38.933617467184	0.5
6598	22507	38.937200401365	0.5
6598	22905	39.2374367796	0.3
6598	22912	39.241225550563	0.3
6598	23168	39.445541480716	0.2
6598	23171	39.448729730245	0.2
6598	23512	39.695333589024	0.7
6598	23619	39.791225713945	0.5
6598	24082	40.198836945592	0.4
6598	24189	40.251741605988	0.8
6598	24192	40.253932535249	0.8
6598	24355	40.358570001807	0.1
6598	25209	41.058570001807	0.7
6598	26681	42.363289481986	1.3
6598	27347	42.963289481986	0.6
6598	27652	43.271854389619	0.3
6598	28344	43.872914132053	0.6
6598	28391	43.924971916804	0.6
6598	28564	44.032095163068	0.1
6598	29057	44.432095163068	0.4
6598	29719	44.938594201115	0.5
6598	29741	44.942953142677	0.5
6598	30868	45.750730942077	0.8
6598	30898	45.754235597464	0.8
6598	32218	46.954798914973	1.2
6598	32684	47.35623512374	0.4
6598	32686	47.356388359404	0.4
6598	32961	47.558284175397	0.2
6598	32975	47.565760159937	0.2
6598	33043	47.631731983247	0.2
6598	33074	47.65755140425	1.9
6598	33285	47.832428814813	0.2
6598	33438	47.968167980486	0.4
6598	33446	47.969910781488	0.4
6598	33878	48.276604642445	0.3
6598	34420	48.714390250177	0
6598	34812	49.114390250177	0.4
6598	35389	49.615564809283	0.5
6598	35482	49.687904574551	0.5
6598	35789	49.923354554765	0.3
6598	35860	50.004154053589	0.3
6598	35935	50.083399421779	0.3
6598	36186	50.2924889902	0.2
6598	36390	50.49296640535	0.2
6598	37172	51.20060979931	0.7
6598	37488	51.49508402693	0.2
6598	37495	51.502225152005	0.3
6598	37759	51.696812545029	0.2
6598	38029	51.907203240643	0.4
6598	38493	52.312139456149	0.4
6598	39331	53.012139456149	0.7
6598	40597	54.120432737178	1.1
6598	40635	54.160660692257	1.1
6598	41321	54.670180043045	0.5
6598	41594	54.870180043045	0.2
6598	42385	55.481168265884	0.6
6598	42891	55.9829306506	0.5
6598	42901	56.000866751222	0.5
6598	43100	56.191561079235	0.2
6598	43241	56.309441827207	0.3
6598	43353	56.402248624287	0.2
6598	43658	56.703157305026	0.3
6598	43809	56.82439344277	0.5
6598	43872	56.864239085668	0.5
6598	44206	57.167015767147	0.3
6598	45271	58.167015767147	1
6598	45673	58.476019501435	0.3
6598	45978	58.679523806642	0.2
6598	46350	58.956364273567	0.4
6598	46388	58.986834498852	0.4
6598	47099	59.589261768306	0.6
6598	47610	60.089261768306	0.5
6598	48301	60.6936898403	0.6
6598	48309	60.702681161344	0.5
6598	48552	60.903781161344	0.2
6598	48858	61.103781161344	0.2
6598	49392	61.504267528181	0.4
6598	49559	61.605367528181	0.1
6598	49958	61.905367528181	0.3
6598	51010	62.707952751651	0.8