version 2
run Stability-110-20130528-00:57:45-21385
attr configname Stability
attr datetime 20130528-00:57:45
attr experiment Stability
attr inifile omnetpp.ini
attr iterationvars $0=1e-5
attr iterationvars2 "$0=1e-5, $repetition=0"
attr measurement $0=1e-5
attr network Network
attr processid 21385
attr repetition 0
attr replication #0
attr resultdir results
attr runnumber 110
attr seedset 110

vector 10766  Network.churner  inGoingSizeSig:vector  ETV
vector 10676  Network.dyn_peer[2]  lookupHopsSig:vector  ETV
vector 10677  Network.dyn_peer[2]  lookupStabilitySig:vector  ETV
vector 10678  Network.dyn_peer[2]  lookupTimeSig:vector  ETV
vector 10682  Network.dyn_peer[4]  lookupHopsSig:vector  ETV
vector 10683  Network.dyn_peer[4]  lookupStabilitySig:vector  ETV
vector 10684  Network.dyn_peer[4]  lookupTimeSig:vector  ETV
vector 10724  Network.dyn_peer[18]  lookupHopsSig:vector  ETV
vector 10725  Network.dyn_peer[18]  lookupStabilitySig:vector  ETV
vector 10726  Network.dyn_peer[18]  lookupTimeSig:vector  ETV
vector 10727  Network.dyn_peer[19]  lookupHopsSig:vector  ETV
vector 10728  Network.dyn_peer[19]  lookupStabilitySig:vector  ETV
vector 10729  Network.dyn_peer[19]  lookupTimeSig:vector  ETV
vector 10763  Network.dyn_peer[31]  lookupHopsSig:vector  ETV
vector 10764  Network.dyn_peer[31]  lookupStabilitySig:vector  ETV
vector 10765  Network.dyn_peer[31]  lookupTimeSig:vector  ETV
vector 10670  Network.dyn_peer[0]  lookupHopsSig:vector  ETV
vector 10671  Network.dyn_peer[0]  lookupStabilitySig:vector  ETV
vector 10672  Network.dyn_peer[0]  lookupTimeSig:vector  ETV
vector 10673  Network.dyn_peer[1]  lookupHopsSig:vector  ETV
vector 10674  Network.dyn_peer[1]  lookupStabilitySig:vector  ETV
vector 10675  Network.dyn_peer[1]  lookupTimeSig:vector  ETV
vector 10688  Network.dyn_peer[6]  lookupHopsSig:vector  ETV
vector 10689  Network.dyn_peer[6]  lookupStabilitySig:vector  ETV
vector 10690  Network.dyn_peer[6]  lookupTimeSig:vector  ETV
vector 10700  Network.dyn_peer[10]  lookupHopsSig:vector  ETV
vector 10701  Network.dyn_peer[10]  lookupStabilitySig:vector  ETV
vector 10702  Network.dyn_peer[10]  lookupTimeSig:vector  ETV
vector 10745  Network.dyn_peer[25]  lookupHopsSig:vector  ETV
vector 10746  Network.dyn_peer[25]  lookupStabilitySig:vector  ETV
vector 10747  Network.dyn_peer[25]  lookupTimeSig:vector  ETV
vector 10760  Network.dyn_peer[30]  lookupHopsSig:vector  ETV
vector 10761  Network.dyn_peer[30]  lookupStabilitySig:vector  ETV
vector 10762  Network.dyn_peer[30]  lookupTimeSig:vector  ETV
vector 10679  Network.dyn_peer[3]  lookupHopsSig:vector  ETV
vector 10680  Network.dyn_peer[3]  lookupStabilitySig:vector  ETV
vector 10681  Network.dyn_peer[3]  lookupTimeSig:vector  ETV
vector 10697  Network.dyn_peer[9]  lookupHopsSig:vector  ETV
vector 10698  Network.dyn_peer[9]  lookupStabilitySig:vector  ETV
vector 10699  Network.dyn_peer[9]  lookupTimeSig:vector  ETV
vector 10706  Network.dyn_peer[12]  lookupHopsSig:vector  ETV
vector 10707  Network.dyn_peer[12]  lookupStabilitySig:vector  ETV
vector 10708  Network.dyn_peer[12]  lookupTimeSig:vector  ETV
vector 10709  Network.dyn_peer[13]  lookupHopsSig:vector  ETV
vector 10710  Network.dyn_peer[13]  lookupStabilitySig:vector  ETV
vector 10711  Network.dyn_peer[13]  lookupTimeSig:vector  ETV
vector 10712  Network.dyn_peer[14]  lookupHopsSig:vector  ETV
vector 10713  Network.dyn_peer[14]  lookupStabilitySig:vector  ETV
vector 10714  Network.dyn_peer[14]  lookupTimeSig:vector  ETV
vector 10715  Network.dyn_peer[15]  lookupHopsSig:vector  ETV
vector 10716  Network.dyn_peer[15]  lookupStabilitySig:vector  ETV
vector 10717  Network.dyn_peer[15]  lookupTimeSig:vector  ETV
vector 10721  Network.dyn_peer[17]  lookupHopsSig:vector  ETV
vector 10722  Network.dyn_peer[17]  lookupStabilitySig:vector  ETV
vector 10723  Network.dyn_peer[17]  lookupTimeSig:vector  ETV
vector 10730  Network.dyn_peer[20]  lookupHopsSig:vector  ETV
vector 10731  Network.dyn_peer[20]  lookupStabilitySig:vector  ETV
vector 10732  Network.dyn_peer[20]  lookupTimeSig:vector  ETV
vector 10736  Network.dyn_peer[22]  lookupHopsSig:vector  ETV
vector 10737  Network.dyn_peer[22]  lookupStabilitySig:vector  ETV
vector 10738  Network.dyn_peer[22]  lookupTimeSig:vector  ETV
vector 10691  Network.dyn_peer[7]  lookupHopsSig:vector  ETV
vector 10692  Network.dyn_peer[7]  lookupStabilitySig:vector  ETV
vector 10693  Network.dyn_peer[7]  lookupTimeSig:vector  ETV
vector 10694  Network.dyn_peer[8]  lookupHopsSig:vector  ETV
vector 10695  Network.dyn_peer[8]  lookupStabilitySig:vector  ETV
vector 10696  Network.dyn_peer[8]  lookupTimeSig:vector  ETV
vector 10733  Network.dyn_peer[21]  lookupHopsSig:vector  ETV
vector 10734  Network.dyn_peer[21]  lookupStabilitySig:vector  ETV
vector 10735  Network.dyn_peer[21]  lookupTimeSig:vector  ETV
vector 10739  Network.dyn_peer[23]  lookupHopsSig:vector  ETV
vector 10740  Network.dyn_peer[23]  lookupStabilitySig:vector  ETV
vector 10741  Network.dyn_peer[23]  lookupTimeSig:vector  ETV
vector 10742  Network.dyn_peer[24]  lookupHopsSig:vector  ETV
vector 10743  Network.dyn_peer[24]  lookupStabilitySig:vector  ETV
vector 10744  Network.dyn_peer[24]  lookupTimeSig:vector  ETV
vector 10748  Network.dyn_peer[26]  lookupHopsSig:vector  ETV
vector 10749  Network.dyn_peer[26]  lookupStabilitySig:vector  ETV
vector 10750  Network.dyn_peer[26]  lookupTimeSig:vector  ETV
vector 10754  Network.dyn_peer[28]  lookupHopsSig:vector  ETV
vector 10755  Network.dyn_peer[28]  lookupStabilitySig:vector  ETV
vector 10756  Network.dyn_peer[28]  lookupTimeSig:vector  ETV
vector 10703  Network.dyn_peer[11]  lookupHopsSig:vector  ETV
vector 10704  Network.dyn_peer[11]  lookupStabilitySig:vector  ETV
vector 10705  Network.dyn_peer[11]  lookupTimeSig:vector  ETV
vector 10751  Network.dyn_peer[27]  lookupHopsSig:vector  ETV
vector 10752  Network.dyn_peer[27]  lookupStabilitySig:vector  ETV
vector 10753  Network.dyn_peer[27]  lookupTimeSig:vector  ETV
vector 10757  Network.dyn_peer[29]  lookupHopsSig:vector  ETV
vector 10758  Network.dyn_peer[29]  lookupStabilitySig:vector  ETV
vector 10759  Network.dyn_peer[29]  lookupTimeSig:vector  ETV
vector 10685  Network.dyn_peer[5]  lookupHopsSig:vector  ETV
vector 10686  Network.dyn_peer[5]  lookupStabilitySig:vector  ETV
vector 10687  Network.dyn_peer[5]  lookupTimeSig:vector  ETV
vector 10718  Network.dyn_peer[16]  lookupHopsSig:vector  ETV
vector 10719  Network.dyn_peer[16]  lookupStabilitySig:vector  ETV
vector 10720  Network.dyn_peer[16]  lookupTimeSig:vector  ETV
10670	143	20.10000001	1
10670	625	20.90000001	7
10670	1831	21.918011644281	9
10670	2618	22.518111654281	6
10670	2890	22.718111654281	1
10670	3247	23.018211664281	3
10670	3574	23.326549005201	2
10670	3894	23.629756833135	3
10670	4263	23.946546885991	2
10670	4333	24.032101469499	2
10670	4747	24.334520089139	3
10670	5749	25.134520089139	7
10670	6166	25.436553886545	2
10670	6675	25.837009855826	3
10670	6913	26.023514540064	2
10670	7504	26.482597865741	3
10670	8087	26.882597865741	4
10670	8328	27.085862763613	1
10670	9297	27.953549319548	3
10670	9832	28.402964576307	13
10670	9895	28.456676393906	4
10670	10210	28.762007207889	3
10670	10571	29.062007207889	2
10670	11155	29.565466472348	4
10670	11619	29.931671557482	4
10670	12274	30.531771567482	6
10670	12909	31.031771567482	4
10670	13366	31.371047578582	2
10670	13470	31.442023540878	4
10670	13678	31.575830628457	1
10670	13704	31.58309257296	0
10670	14104	31.88309257296	2
10670	14350	32.086096957506	1
10670	14799	32.395726236317	2
10670	15020	32.599632205424	2
10670	15468	32.90726650619	3
10670	15670	33.110206442953	3
10670	15717	33.140594939714	7
10670	16110	33.510831621983	2
10670	16511	33.811924751491	9
10670	16521	33.82026023227	2
10670	17272	34.421106513004	6
10670	18069	35.021106513004	6
10670	18269	35.209793017222	3
10670	18718	35.610609073086	3
10670	18863	35.720438778361	1
10670	19106	35.923093657023	1
10670	19335	36.133474826669	2
10670	19359	36.165369189823	1
10670	19828	36.54560753569	3
10670	19842	36.570961973258	3
10670	20621	37.180002708712	6
10670	21186	37.680002708712	4
10670	21624	38.083595472157	5
10670	22589	38.883595472157	9
10670	22797	39.090666424273	1
10670	23026	39.298571416045	1
10670	23847	40.001938779115	8
10670	23894	40.041581443971	5
10670	24129	40.241681453971	2
10670	24792	40.841681453971	7
10670	25148	41.147229172146	2
10670	25608	41.548934702399	3
10670	25636	41.559953923533	2
10670	25868	41.763650419155	1
10670	25914	41.838784508385	1
10670	26085	41.957457678458	3
10670	26486	42.257557688458	3
10670	27721	43.157557688458	8
10670	27962	43.363475485975	1
10670	28277	43.648247439068	5
10670	28299	43.67070458784	2
10670	28872	44.072127943429	6
10670	30106	45.075762342497	6
10670	30847	45.675862352497	7
10670	31498	46.175862352497	5
10670	31684	46.307608250603	5
10670	32075	46.620033935535	2
10670	32167	46.699972308929	5
10670	32359	46.88539959752	7
10670	32984	47.389324083167	5
10670	33299	47.689324083167	2
10670	33561	47.892596613184	1
10670	34536	48.700412294306	3
10670	35244	49.200412294306	4
10670	35987	49.617795630622	5
10670	36102	49.707670706545	4
10670	36403	49.925696263772	2
10670	36481	49.997687365444	2
10670	36492	50.008239665233	2
10670	36772	50.198025291653	1
10670	37026	50.398125301653	2
10670	38119	51.298125301653	10
10670	38946	52.098602657713	8
10670	39644	52.698602657713	5
10670	39909	52.902189903181	1
10670	40526	53.440011216267	5
10670	40634	53.507890168	5
10670	40874	53.745058472808	3
10670	41032	53.873821679717	3
10670	41174	53.974365599881	1
10670	43293	55.922194416518	10
10670	44312	56.822194416518	9
10670	44943	57.426693926481	5
10670	45210	57.648281981155	7
10670	45756	58.129914679412	7
10670	45799	58.168292965156	7
10670	45859	58.198107697903	6
10670	46305	58.604373982378	4
10670	46923	59.113685382968	3
10670	47728	59.820802610635	7
10670	48201	60.320802610635	4
10670	49329	61.137302810921	9
10670	49439	61.240470379832	10
10670	49725	61.437578749499	2
10670	49855	61.545030527457	1
10670	50678	62.145030527457	6
10670	51354	62.746055870954	6
10670	51724	63.054514554146	3
10670	52164	63.462401006385	3
10670	54003	64.968018418331	16
10670	54748	65.668018418331	6
10670	55140	65.983133378494	3
10670	55390	66.187552821211	1
10670	56192	66.794474497612	7
10670	56691	67.194474497612	3
10670	57097	67.503550708899	2
10670	58080	68.311139985192	7
10670	58121	68.3723637424	7
10670	58840	68.976655438468	6
10670	59075	69.176655438468	1
10670	59794	69.78607414711	5
10670	59976	69.909056830902	6
10670	60038	69.991683247808	1
10670	61807	71.597742301667	18
10670	63077	72.597742301667	9
10670	63456	72.900537927131	2
10670	63869	73.308820159536	4
10670	64817	74.008820159536	7
10670	65217	74.316129531574	2
10670	65386	74.418677058834	1
10670	66303	75.118677058834	8
10670	66573	75.323279302361	1
10670	67014	75.632207634107	2
10670	67211	75.829577059867	2
10670	67227	75.840518012914	1
10670	67689	76.23183979776	2
10670	67731	76.249298134493	4
10670	68129	76.637032491066	7
10670	68164	76.655867269279	3
10670	68264	76.746015674238	4
10670	68397	76.850213202302	1
10670	68792	77.150213202302	3
10670	69305	77.558050704189	3
10670	69743	77.962522403998	4
10670	70499	78.562522403998	6
10670	71819	79.569164917668	10
10670	72349	79.976211808973	3
10670	72644	80.184117161649	1
10670	72702	80.213904786315	0
10670	72996	80.413804776315	10
10670	73683	80.920928907068	5
10670	74655	81.720928907068	7
10670	74957	82.024592437657	2
10670	75784	82.829427349636	8
10670	76411	83.429427349636	5
10670	77328	84.239381746678	7
10670	77653	84.47224266872	1
10670	78371	85.078918681911	5
10670	78430	85.119149241908	8
10670	78589	85.281238504834	1
10670	78888	85.48980465711	2
10670	79324	85.88980465711	3
10670	80288	86.657350914595	4
10670	80689	86.957350914595	2
10670	81083	87.23250959549	1
10670	82054	88.03250959549	9
10670	82491	88.441171687763	3
10670	82646	88.552085597504	2
10670	83643	89.561364265513	9
10670	84366	90.162508630105	5
10670	84577	90.293474145684	5
10670	84625	90.348114239534	18
10670	84823	90.47247765724	2
10670	84856	90.494653812107	1
10670	84994	90.595543792529	1
10670	85714	91.195543792529	5
10670	86163	91.509282432775	2
10670	87930	92.909382442775	16
10670	88139	93.109382442775	1
10670	88572	93.516285095241	5
10670	88587	93.572514208464	3
10670	88643	93.590134886843	2
10670	88780	93.722504162376	1
10670	88849	93.793668693333	1
10670	88854	93.795327624599	1
10670	89067	93.995427634599	2
10670	89966	94.795427634599	7
10670	90324	95.100311436307	2
10670	90679	95.400679377141	2
10670	91160	95.823025016157	4
10670	91416	96.025289750216	2
10670	91792	96.325289750216	2
10670	92097	96.531985406496	1
10670	92507	96.832085416496	3
10670	93261	97.532085416496	6
10670	94225	98.438389550279	8
10670	94496	98.657947417647	1
10670	94859	98.94859541656	4
10670	95135	99.171300932622	5
10670	95233	99.258165991492	2
10670	95464	99.458559808851	1
10670	96033	99.958659818851	5
10670	96501	100.358659818851	3
10670	96947	100.672795707458	3
10670	97834	101.372795707458	6
10670	98230	101.682575132602	2
10670	98407	101.787028009115	1
10670	98772	102.087028009115	2
10670	99994	103.189641748986	11
10670	100517	103.701496192135	3
10670	100713	103.889641748986	6
10670	100924	104.093330952918	2
10670	101178	104.293330952918	2
10670	101446	104.493648248079	1
10670	102406	105.195689554439	6
10670	102691	105.398814029324	1
10670	103344	105.903349896339	5
10670	104047	106.60713220759	6
10670	104706	107.231384936356	5
10670	105118	107.646645154223	3
10670	105452	107.949331547642	2
10670	105531	108.025885247303	1
10670	105858	108.335532766658	3
10670	107002	109.435532766658	10
10670	107246	109.635632776658	2
10670	107622	109.940605944542	3
10670	108866	110.940705954542	12
10670	109594	111.540705954542	5
10670	110201	112.151552346624	5
10670	110226	112.178444737789	7
10670	110923	112.681677642724	5
10670	111231	112.981677642724	2
10670	111963	113.595406616978	6
10670	112445	113.995957023043	3
10670	112448	113.998539545878	6
10670	112709	114.20125410143	2
10670	113302	114.80125410143	5
10670	114018	115.40166813495	5
10670	114418	115.683981434932	7
10670	114925	116.087013438957	3
10670	114935	116.103659857405	6
10670	115445	116.510183964069	5
10670	115905	116.910183964069	4
10670	116076	117.070827277221	1
10670	116897	117.771233651213	7
10670	117404	118.171233651213	3
10670	117862	118.581024442362	3
10670	118510	119.081997625145	4
10670	119158	119.587391280999	4
10670	119694	119.98784363611	4
10670	120611	120.68784363611	6
10670	120824	120.89289004609	1
10670	121063	121.095853925724	1
10670	121211	121.254209235673	1
10670	122170	122.155264158084	11
10670	123369	123.255264158084	11
10670	123851	123.657827260268	3
10670	124126	123.883774083294	3
10670	124288	124.078795355472	3
10670	124658	124.365138331374	7
10670	124696	124.390327472093	4
10670	125107	124.790750531751	4
10670	125335	124.997476178725	1
10670	125538	125.189997027117	1
10670	125869	125.490097037117	3
10670	126249	125.89097511347	3
10670	126459	126.099198597891	1
10670	126657	126.215914914324	3
10670	126913	126.421011856887	2
10670	127505	126.921011856887	5
10670	127987	127.325195422567	4
10670	128242	127.529742201322	5
10670	128282	127.593503059108	5
10670	129193	128.299417197598	7
10670	129491	128.599417197598	2
10670	130278	129.307281806572	6
10670	130872	129.810336060173	5
10670	130953	129.855200872686	4
10670	131147	130.014544532711	1
10670	131216	130.060770181758	1
10670	131647	130.467773332689	3
10670	131685	130.527043021617	3
10670	131781	130.621916724953	5
10670	131976	130.776023561204	2
10670	132092	130.922440832871	2
10670	132120	130.930541959148	2
10670	132285	131.036407714946	1
10670	132509	131.236407714946	1
10670	132765	131.43797294549	1
10670	132831	131.471163365505	1
10670	133259	131.840719462154	3
10670	133308	131.880963272383	3
10670	133507	132.092795664024	1
10671	143	20.10000001	0.875
10671	625	20.90000001	0.125
10671	1831	21.918011644281	-0.125
10671	2618	22.518111654281	0.25
10671	2890	22.718111654281	0.875
10671	3247	23.018211664281	0.625
10671	3574	23.326549005201	0.75
10671	3894	23.629756833135	0.625
10671	4263	23.946546885991	0.75
10671	4333	24.032101469499	0.75
10671	4747	24.334520089139	0.625
10671	5749	25.134520089139	0.125
10671	6166	25.436553886545	0.75
10671	6675	25.837009855826	0.625
10671	6913	26.023514540064	0.75
10671	7504	26.482597865741	0.625
10671	8087	26.882597865741	0.5
10671	8328	27.085862763613	0.875
10671	9297	27.953549319548	0.625
10671	9832	28.402964576307	-0.625
10671	9895	28.456676393906	0.5
10671	10210	28.762007207889	0.66666665673256
10671	10571	29.062007207889	0.75
10671	11155	29.565466472348	0.5
10671	11619	29.931671557482	0.5
10671	12274	30.531771567482	0.25
10671	12909	31.031771567482	0.5
10671	13366	31.371047578582	0.75
10671	13470	31.442023540878	0.5
10671	13678	31.575830628457	0.875
10671	13704	31.58309257296	1
10671	14104	31.88309257296	0.75
10671	14350	32.086096957506	0.875
10671	14799	32.395726236317	0.75
10671	15020	32.599632205424	0.75
10671	15468	32.90726650619	0.625
10671	15670	33.110206442953	0.625
10671	15717	33.140594939714	0.125
10671	16110	33.510831621983	0.75
10671	16511	33.811924751491	-0.125
10671	16521	33.82026023227	0.75
10671	17272	34.421106513004	0.25
10671	18069	35.021106513004	0.25
10671	18269	35.209793017222	0.625
10671	18718	35.610609073086	0.625
10671	18863	35.720438778361	0.875
10671	19106	35.923093657023	0.875
10671	19335	36.133474826669	0.75
10671	19359	36.165369189823	0.875
10671	19828	36.54560753569	0.625
10671	19842	36.570961973258	0.625
10671	20621	37.180002708712	0.25
10671	21186	37.680002708712	0.5
10671	21624	38.083595472157	0.375
10671	22589	38.883595472157	-0.125
10671	22797	39.090666424273	0.875
10671	23026	39.298571416045	0.875
10671	23847	40.001938779115	0
10671	23894	40.041581443971	0.375
10671	24129	40.241681453971	0.75
10671	24792	40.841681453971	0.125
10671	25148	41.147229172146	0.75
10671	25608	41.548934702399	0.625
10671	25636	41.559953923533	0.75
10671	25868	41.763650419155	0.875
10671	25914	41.838784508385	0.875
10671	26085	41.957457678458	0.625
10671	26486	42.257557688458	0.625
10671	27721	43.157557688458	0
10671	27962	43.363475485975	0.875
10671	28277	43.648247439068	0.375
10671	28299	43.67070458784	0.75
10671	28872	44.072127943429	0.25
10671	30106	45.075762342497	0.25
10671	30847	45.675862352497	0.125
10671	31498	46.175862352497	0.375
10671	31684	46.307608250603	0.375
10671	32075	46.620033935535	0.75
10671	32167	46.699972308929	0.375
10671	32359	46.88539959752	0.125
10671	32984	47.389324083167	0.375
10671	33299	47.689324083167	0.75
10671	33561	47.892596613184	0.875
10671	34536	48.700412294306	0.625
10671	35244	49.200412294306	0.5
10671	35987	49.617795630622	0.375
10671	36102	49.707670706545	0.5
10671	36403	49.925696263772	0.75
10671	36481	49.997687365444	0.75
10671	36492	50.008239665233	0.75
10671	36772	50.198025291653	0.875
10671	37026	50.398125301653	0.75
10671	38119	51.298125301653	-0.25
10671	38946	52.098602657713	0
10671	39644	52.698602657713	0.375
10671	39909	52.902189903181	0.875
10671	40526	53.440011216267	0.375
10671	40634	53.507890168	0.375
10671	40874	53.745058472808	0.625
10671	41032	53.873821679717	0.625
10671	41174	53.974365599881	0.875
10671	43293	55.922194416518	-0.25
10671	44312	56.822194416518	-0.125
10671	44943	57.426693926481	0.375
10671	45210	57.648281981155	0.125
10671	45756	58.129914679412	0.125
10671	45799	58.168292965156	0.125
10671	45859	58.198107697903	0.25
10671	46305	58.604373982378	0.5
10671	46923	59.113685382968	0.625
10671	47728	59.820802610635	0.125
10671	48201	60.320802610635	0.5
10671	49329	61.137302810921	-0.125
10671	49439	61.240470379832	-0.25
10671	49725	61.437578749499	0.75
10671	49855	61.545030527457	0.875
10671	50678	62.145030527457	0.25
10671	51354	62.746055870954	0.25
10671	51724	63.054514554146	0.625
10671	52164	63.462401006385	0.625
10671	54003	64.968018418331	-1
10671	54748	65.668018418331	0.25
10671	55140	65.983133378494	0.625
10671	55390	66.187552821211	0.875
10671	56192	66.794474497612	0.125
10671	56691	67.194474497612	0.625
10671	57097	67.503550708899	0.75
10671	58080	68.311139985192	0.125
10671	58121	68.3723637424	0.125
10671	58840	68.976655438468	0.25
10671	59075	69.176655438468	0.875
10671	59794	69.78607414711	0.375
10671	59976	69.909056830902	0.25
10671	60038	69.991683247808	0.875
10671	61807	71.597742301667	-1.25
10671	63077	72.597742301667	-0.125
10671	63456	72.900537927131	0.75
10671	63869	73.308820159536	0.5
10671	64817	74.008820159536	0.125
10671	65217	74.316129531574	0.75
10671	65386	74.418677058834	0.875
10671	66303	75.118677058834	0
10671	66573	75.323279302361	0.875
10671	67014	75.632207634107	0.75
10671	67211	75.829577059867	0.75
10671	67227	75.840518012914	0.875
10671	67689	76.23183979776	0.75
10671	67731	76.249298134493	0.5
10671	68129	76.637032491066	0.125
10671	68164	76.655867269279	0.625
10671	68264	76.746015674238	0.5
10671	68397	76.850213202302	0.875
10671	68792	77.150213202302	0.625
10671	69305	77.558050704189	0.625
10671	69743	77.962522403998	0.5
10671	70499	78.562522403998	0.25
10671	71819	79.569164917668	-0.25
10671	72349	79.976211808973	0.625
10671	72644	80.184117161649	0.875
10671	72702	80.213904786315	1
10671	72996	80.413804776315	-0.25
10671	73683	80.920928907068	0.375
10671	74655	81.720928907068	0.125
10671	74957	82.024592437657	0.75
10671	75784	82.829427349636	0
10671	76411	83.429427349636	0.375
10671	77328	84.239381746678	0.125
10671	77653	84.47224266872	0.875
10671	78371	85.078918681911	0.375
10671	78430	85.119149241908	0
10671	78589	85.281238504834	0.875
10671	78888	85.48980465711	0.75
10671	79324	85.88980465711	0.625
10671	80288	86.657350914595	0.5
10671	80689	86.957350914595	0.75
10671	81083	87.23250959549	0.875
10671	82054	88.03250959549	-0.125
10671	82491	88.441171687763	0.625
10671	82646	88.552085597504	0.75
10671	83643	89.561364265513	-0.125
10671	84366	90.162508630105	0.375
10671	84577	90.293474145684	0.375
10671	84625	90.348114239534	-1.25
10671	84823	90.47247765724	0.75
10671	84856	90.494653812107	0.875
10671	84994	90.595543792529	0.875
10671	85714	91.195543792529	0.375
10671	86163	91.509282432775	0.75
10671	87930	92.909382442775	-1
10671	88139	93.109382442775	0.875
10671	88572	93.516285095241	0.375
10671	88587	93.572514208464	0.625
10671	88643	93.590134886843	0.75
10671	88780	93.722504162376	0.875
10671	88849	93.793668693333	0.875
10671	88854	93.795327624599	0.875
10671	89067	93.995427634599	0.75
10671	89966	94.795427634599	0.125
10671	90324	95.100311436307	0.75
10671	90679	95.400679377141	0.75
10671	91160	95.823025016157	0.5
10671	91416	96.025289750216	0.75
10671	91792	96.325289750216	0.75
10671	92097	96.531985406496	0.875
10671	92507	96.832085416496	0.625
10671	93261	97.532085416496	0.25
10671	94225	98.438389550279	0
10671	94496	98.657947417647	0.875
10671	94859	98.94859541656	0.5
10671	95135	99.171300932622	0.375
10671	95233	99.258165991492	0.75
10671	95464	99.458559808851	0.875
10671	96033	99.958659818851	0.375
10671	96501	100.358659818851	0.625
10671	96947	100.672795707458	0.625
10671	97834	101.372795707458	0.25
10671	98230	101.682575132602	0.75
10671	98407	101.787028009115	0.875
10671	98772	102.087028009115	0.75
10671	99994	103.189641748986	-0.375
10671	100517	103.701496192135	0.625
10671	100713	103.889641748986	0.25
10671	100924	104.093330952918	0.75
10671	101178	104.293330952918	0.75
10671	101446	104.493648248079	0.875
10671	102406	105.195689554439	0.25
10671	102691	105.398814029324	0.875
10671	103344	105.903349896339	0.375
10671	104047	106.60713220759	0.25
10671	104706	107.231384936356	0.375
10671	105118	107.646645154223	0.625
10671	105452	107.949331547642	0.75
10671	105531	108.025885247303	0.875
10671	105858	108.335532766658	0.625
10671	107002	109.435532766658	-0.25
10671	107246	109.635632776658	0.75
10671	107622	109.940605944542	0.625
10671	108866	110.940705954542	-0.5
10671	109594	111.540705954542	0.375
10671	110201	112.151552346624	0.375
10671	110226	112.178444737789	0.125
10671	110923	112.681677642724	0.375
10671	111231	112.981677642724	0.75
10671	111963	113.595406616978	0.25
10671	112445	113.995957023043	0.625
10671	112448	113.998539545878	0.25
10671	112709	114.20125410143	0.75
10671	113302	114.80125410143	0.375
10671	114018	115.40166813495	0.375
10671	114418	115.683981434932	0.125
10671	114925	116.087013438957	0.625
10671	114935	116.103659857405	0.25
10671	115445	116.510183964069	0.375
10671	115905	116.910183964069	0.5
10671	116076	117.070827277221	0.875
10671	116897	117.771233651213	0.125
10671	117404	118.171233651213	0.625
10671	117862	118.581024442362	0.625
10671	118510	119.081997625145	0.5
10671	119158	119.587391280999	0.5
10671	119694	119.98784363611	0.5
10671	120611	120.68784363611	0.25
10671	120824	120.89289004609	0.875
10671	121063	121.095853925724	0.875
10671	121211	121.254209235673	0.875
10671	122170	122.155264158084	-0.375
10671	123369	123.255264158084	-0.375
10671	123851	123.657827260268	0.625
10671	124126	123.883774083294	0.625
10671	124288	124.078795355472	0.625
10671	124658	124.365138331374	0.125
10671	124696	124.390327472093	0.5
10671	125107	124.790750531751	0.5
10671	125335	124.997476178725	0.875
10671	125538	125.189997027117	0.875
10671	125869	125.490097037117	0.625
10671	126249	125.89097511347	0.625
10671	126459	126.099198597891	0.875
10671	126657	126.215914914324	0.625
10671	126913	126.421011856887	0.75
10671	127505	126.921011856887	0.375
10671	127987	127.325195422567	0.5
10671	128242	127.529742201322	0.375
10671	128282	127.593503059108	0.375
10671	129193	128.299417197598	0.125
10671	129491	128.599417197598	0.75
10671	130278	129.307281806572	0.25
10671	130872	129.810336060173	0.375
10671	130953	129.855200872686	0.5
10671	131147	130.014544532711	0.875
10671	131216	130.060770181758	0.875
10671	131647	130.467773332689	0.625
10671	131685	130.527043021617	0.625
10671	131781	130.621916724953	0.375
10671	131976	130.776023561204	0.75
10671	132092	130.922440832871	0.75
10671	132120	130.930541959148	0.75
10671	132285	131.036407714946	0.875
10671	132509	131.236407714946	0.875
10671	132765	131.43797294549	0.875
10671	132831	131.471163365505	0.875
10671	133259	131.840719462154	0.625
10671	133308	131.880963272383	0.625
10671	133507	132.092795664024	0.875
10672	143	20.10000001	0.1
10672	625	20.90000001	0.8
10672	1831	21.918011644281	1
10672	2618	22.518111654281	0.6
10672	2890	22.718111654281	0.2
10672	3247	23.018211664281	0.3
10672	3574	23.326549005201	0.3
10672	3894	23.629756833135	0.3
10672	4263	23.946546885991	0.3
10672	4333	24.032101469499	0.3
10672	4747	24.334520089139	0.3
10672	5749	25.134520089139	0.8
10672	6166	25.436553886545	0.3
10672	6675	25.837009855826	0.4
10672	6913	26.023514540064	0.3
10672	7504	26.482597865741	0.3
10672	8087	26.882597865741	0.4
10672	8328	27.085862763613	0.2
10672	9297	27.953549319548	0.4
10672	9832	28.402964576307	1.3
10672	9895	28.456676393906	0.5
10672	10210	28.762007207889	0.3
10672	10571	29.062007207889	0.3
10672	11155	29.565466472348	0.5
10672	11619	29.931671557482	0.5
10672	12274	30.531771567482	0.6
10672	12909	31.031771567482	0.5
10672	13366	31.371047578582	0.3
10672	13470	31.442023540878	0.4
10672	13678	31.575830628457	0.2
10672	13704	31.58309257296	0
10672	14104	31.88309257296	0.3
10672	14350	32.086096957506	0.2
10672	14799	32.395726236317	0.3
10672	15020	32.599632205424	0.2
10672	15468	32.90726650619	0.3
10672	15670	33.110206442953	0.4
10672	15717	33.140594939714	0.7
10672	16110	33.510831621983	0.3
10672	16511	33.811924751491	0.9
10672	16521	33.82026023227	0.3
10672	17272	34.421106513004	0.6
10672	18069	35.021106513004	0.6
10672	18269	35.209793017222	0.4
10672	18718	35.610609073086	0.4
10672	18863	35.720438778361	0.1
10672	19106	35.923093657023	0.2
10672	19335	36.133474826669	0.2
10672	19359	36.165369189823	0.2
10672	19828	36.54560753569	0.4
10672	19842	36.570961973258	0.4
10672	20621	37.180002708712	0.6
10672	21186	37.680002708712	0.5
10672	21624	38.083595472157	0.4
10672	22589	38.883595472157	0.8
10672	22797	39.090666424273	0.2
10672	23026	39.298571416045	0.2
10672	23847	40.001938779115	0.7
10672	23894	40.041581443971	0.6
10672	24129	40.241681453971	0.2
10672	24792	40.841681453971	0.6
10672	25148	41.147229172146	0.3
10672	25608	41.548934702399	0.4
10672	25636	41.559953923533	0.3
10672	25868	41.763650419155	0.2
10672	25914	41.838784508385	0.2
10672	26085	41.957457678458	0.4
10672	26486	42.257557688458	0.3
10672	27721	43.157557688458	0.9
10672	27962	43.363475485975	0.2
10672	28277	43.648247439068	0.6
10672	28299	43.67070458784	0.3
10672	28872	44.072127943429	0.4
10672	30106	45.075762342497	0.6
10672	30847	45.675862352497	0.6
10672	31498	46.175862352497	0.5
10672	31684	46.307608250603	0.5
10672	32075	46.620033935535	0.3
10672	32167	46.699972308929	0.6
10672	32359	46.88539959752	0.7
10672	32984	47.389324083167	0.5
10672	33299	47.689324083167	0.3
10672	33561	47.892596613184	0.2
10672	34536	48.700412294306	0.3
10672	35244	49.200412294306	0.5
10672	35987	49.617795630622	0.5
10672	36102	49.707670706545	0.5
10672	36403	49.925696263772	0.3
10672	36481	49.997687365444	0.2
10672	36492	50.008239665233	0.3
10672	36772	50.198025291653	0.2
10672	37026	50.398125301653	0.2
10672	38119	51.298125301653	0.9
10672	38946	52.098602657713	0.8
10672	39644	52.698602657713	0.6
10672	39909	52.902189903181	0.2
10672	40526	53.440011216267	0.6
10672	40634	53.507890168	0.6
10672	40874	53.745058472808	0.3
10672	41032	53.873821679717	0.4
10672	41174	53.974365599881	0.1
10672	43293	55.922194416518	0.9
10672	44312	56.822194416518	0.9
10672	44943	57.426693926481	0.6
10672	45210	57.648281981155	0.7
10672	45756	58.129914679412	0.7
10672	45799	58.168292965156	0.7
10672	45859	58.198107697903	0.7
10672	46305	58.604373982378	0.4
10672	46923	59.113685382968	0.4
10672	47728	59.820802610635	0.7
10672	48201	60.320802610635	0.5
10672	49329	61.137302810921	0.8
10672	49439	61.240470379832	0.9
10672	49725	61.437578749499	0.3
10672	49855	61.545030527457	0.1
10672	50678	62.145030527457	0.6
10672	51354	62.746055870954	0.6
10672	51724	63.054514554146	0.3
10672	52164	63.462401006385	0.4
10672	54003	64.968018418331	1.5
10672	54748	65.668018418331	0.7
10672	55140	65.983133378494	0.3