version 2
run Stability-112-20130528-00:57:54-21385
attr configname Stability
attr datetime 20130528-00:57:54
attr experiment Stability
attr inifile omnetpp.ini
attr iterationvars $0=1e-5
attr iterationvars2 "$0=1e-5, $repetition=2"
attr measurement $0=1e-5
attr network Network
attr processid 21385
attr repetition 2
attr replication #2
attr resultdir results
attr runnumber 112
attr seedset 112

vector 10960  Network.churner  inGoingSizeSig:vector  ETV
vector 10894  Network.dyn_peer[10]  lookupHopsSig:vector  ETV
vector 10895  Network.dyn_peer[10]  lookupStabilitySig:vector  ETV
vector 10896  Network.dyn_peer[10]  lookupTimeSig:vector  ETV
vector 10912  Network.dyn_peer[16]  lookupHopsSig:vector  ETV
vector 10913  Network.dyn_peer[16]  lookupStabilitySig:vector  ETV
vector 10914  Network.dyn_peer[16]  lookupTimeSig:vector  ETV
vector 10864  Network.dyn_peer[0]  lookupHopsSig:vector  ETV
vector 10865  Network.dyn_peer[0]  lookupStabilitySig:vector  ETV
vector 10866  Network.dyn_peer[0]  lookupTimeSig:vector  ETV
vector 10867  Network.dyn_peer[1]  lookupHopsSig:vector  ETV
vector 10868  Network.dyn_peer[1]  lookupStabilitySig:vector  ETV
vector 10869  Network.dyn_peer[1]  lookupTimeSig:vector  ETV
vector 10870  Network.dyn_peer[2]  lookupHopsSig:vector  ETV
vector 10871  Network.dyn_peer[2]  lookupStabilitySig:vector  ETV
vector 10872  Network.dyn_peer[2]  lookupTimeSig:vector  ETV
vector 10876  Network.dyn_peer[4]  lookupHopsSig:vector  ETV
vector 10877  Network.dyn_peer[4]  lookupStabilitySig:vector  ETV
vector 10878  Network.dyn_peer[4]  lookupTimeSig:vector  ETV
vector 10879  Network.dyn_peer[5]  lookupHopsSig:vector  ETV
vector 10880  Network.dyn_peer[5]  lookupStabilitySig:vector  ETV
vector 10881  Network.dyn_peer[5]  lookupTimeSig:vector  ETV
vector 10885  Network.dyn_peer[7]  lookupHopsSig:vector  ETV
vector 10886  Network.dyn_peer[7]  lookupStabilitySig:vector  ETV
vector 10887  Network.dyn_peer[7]  lookupTimeSig:vector  ETV
vector 10900  Network.dyn_peer[12]  lookupHopsSig:vector  ETV
vector 10901  Network.dyn_peer[12]  lookupStabilitySig:vector  ETV
vector 10902  Network.dyn_peer[12]  lookupTimeSig:vector  ETV
vector 10927  Network.dyn_peer[21]  lookupHopsSig:vector  ETV
vector 10928  Network.dyn_peer[21]  lookupStabilitySig:vector  ETV
vector 10929  Network.dyn_peer[21]  lookupTimeSig:vector  ETV
vector 10936  Network.dyn_peer[24]  lookupHopsSig:vector  ETV
vector 10937  Network.dyn_peer[24]  lookupStabilitySig:vector  ETV
vector 10938  Network.dyn_peer[24]  lookupTimeSig:vector  ETV
vector 10873  Network.dyn_peer[3]  lookupHopsSig:vector  ETV
vector 10874  Network.dyn_peer[3]  lookupStabilitySig:vector  ETV
vector 10875  Network.dyn_peer[3]  lookupTimeSig:vector  ETV
vector 10882  Network.dyn_peer[6]  lookupHopsSig:vector  ETV
vector 10883  Network.dyn_peer[6]  lookupStabilitySig:vector  ETV
vector 10884  Network.dyn_peer[6]  lookupTimeSig:vector  ETV
vector 10888  Network.dyn_peer[8]  lookupHopsSig:vector  ETV
vector 10889  Network.dyn_peer[8]  lookupStabilitySig:vector  ETV
vector 10890  Network.dyn_peer[8]  lookupTimeSig:vector  ETV
vector 10903  Network.dyn_peer[13]  lookupHopsSig:vector  ETV
vector 10904  Network.dyn_peer[13]  lookupStabilitySig:vector  ETV
vector 10905  Network.dyn_peer[13]  lookupTimeSig:vector  ETV
vector 10906  Network.dyn_peer[14]  lookupHopsSig:vector  ETV
vector 10907  Network.dyn_peer[14]  lookupStabilitySig:vector  ETV
vector 10908  Network.dyn_peer[14]  lookupTimeSig:vector  ETV
vector 10909  Network.dyn_peer[15]  lookupHopsSig:vector  ETV
vector 10910  Network.dyn_peer[15]  lookupStabilitySig:vector  ETV
vector 10911  Network.dyn_peer[15]  lookupTimeSig:vector  ETV
vector 10915  Network.dyn_peer[17]  lookupHopsSig:vector  ETV
vector 10916  Network.dyn_peer[17]  lookupStabilitySig:vector  ETV
vector 10917  Network.dyn_peer[17]  lookupTimeSig:vector  ETV
vector 10918  Network.dyn_peer[18]  lookupHopsSig:vector  ETV
vector 10919  Network.dyn_peer[18]  lookupStabilitySig:vector  ETV
vector 10920  Network.dyn_peer[18]  lookupTimeSig:vector  ETV
vector 10921  Network.dyn_peer[19]  lookupHopsSig:vector  ETV
vector 10922  Network.dyn_peer[19]  lookupStabilitySig:vector  ETV
vector 10923  Network.dyn_peer[19]  lookupTimeSig:vector  ETV
vector 10924  Network.dyn_peer[20]  lookupHopsSig:vector  ETV
vector 10925  Network.dyn_peer[20]  lookupStabilitySig:vector  ETV
vector 10926  Network.dyn_peer[20]  lookupTimeSig:vector  ETV
vector 10945  Network.dyn_peer[27]  lookupHopsSig:vector  ETV
vector 10946  Network.dyn_peer[27]  lookupStabilitySig:vector  ETV
vector 10947  Network.dyn_peer[27]  lookupTimeSig:vector  ETV
vector 10954  Network.dyn_peer[30]  lookupHopsSig:vector  ETV
vector 10955  Network.dyn_peer[30]  lookupStabilitySig:vector  ETV
vector 10956  Network.dyn_peer[30]  lookupTimeSig:vector  ETV
vector 10957  Network.dyn_peer[31]  lookupHopsSig:vector  ETV
vector 10958  Network.dyn_peer[31]  lookupStabilitySig:vector  ETV
vector 10959  Network.dyn_peer[31]  lookupTimeSig:vector  ETV
vector 10891  Network.dyn_peer[9]  lookupHopsSig:vector  ETV
vector 10892  Network.dyn_peer[9]  lookupStabilitySig:vector  ETV
vector 10893  Network.dyn_peer[9]  lookupTimeSig:vector  ETV
vector 10930  Network.dyn_peer[22]  lookupHopsSig:vector  ETV
vector 10931  Network.dyn_peer[22]  lookupStabilitySig:vector  ETV
vector 10932  Network.dyn_peer[22]  lookupTimeSig:vector  ETV
vector 10933  Network.dyn_peer[23]  lookupHopsSig:vector  ETV
vector 10934  Network.dyn_peer[23]  lookupStabilitySig:vector  ETV
vector 10935  Network.dyn_peer[23]  lookupTimeSig:vector  ETV
vector 10939  Network.dyn_peer[25]  lookupHopsSig:vector  ETV
vector 10940  Network.dyn_peer[25]  lookupStabilitySig:vector  ETV
vector 10941  Network.dyn_peer[25]  lookupTimeSig:vector  ETV
vector 10942  Network.dyn_peer[26]  lookupHopsSig:vector  ETV
vector 10943  Network.dyn_peer[26]  lookupStabilitySig:vector  ETV
vector 10944  Network.dyn_peer[26]  lookupTimeSig:vector  ETV
vector 10948  Network.dyn_peer[28]  lookupHopsSig:vector  ETV
vector 10949  Network.dyn_peer[28]  lookupStabilitySig:vector  ETV
vector 10950  Network.dyn_peer[28]  lookupTimeSig:vector  ETV
vector 10951  Network.dyn_peer[29]  lookupHopsSig:vector  ETV
vector 10952  Network.dyn_peer[29]  lookupStabilitySig:vector  ETV
vector 10953  Network.dyn_peer[29]  lookupTimeSig:vector  ETV
vector 10897  Network.dyn_peer[11]  lookupHopsSig:vector  ETV
vector 10898  Network.dyn_peer[11]  lookupStabilitySig:vector  ETV
vector 10899  Network.dyn_peer[11]  lookupTimeSig:vector  ETV
10864	134	20.10000001	1
10864	539	20.705490297195	5
10864	915	21.107812335076	2
10864	2121	22.007812335076	11
10864	2490	22.209058754911	2
10864	3549	23.009058754911	9
10864	3933	23.30975467417	2
10864	4456	23.717094405962	3
10864	4764	23.93111097716	3
10864	5138	24.236907787918	3
10864	6615	25.435173406515	11
10864	6618	25.436907787918	12
10864	6989	25.739379222558	2
10864	7131	25.840681946572	1
10864	7709	26.340681946572	4
10864	8059	26.643667713476	2
10864	8637	27.144753093123	5
10864	8954	27.444753093123	2
10864	9992	28.144853103123	8
10864	11163	29.068307919963	5
10864	12077	29.768307919963	6
10864	12804	30.3143339161	5
10864	12815	30.328404427716	1
10864	13842	31.232167088573	9
10864	14314	31.632167088573	3
10864	14566	31.839011840023	1
10864	14820	32.056241460999	1
10864	14884	32.115053913048	1
10864	16515	33.322951192946	12
10864	17072	33.822951192946	4
10864	17854	34.532167058837	6
10864	18168	34.834664835835	3
10864	18304	34.92247491186	8
10864	18728	35.22277898837	2
10864	18867	35.329172626846	1
10864	19924	36.129172626846	8
10864	20195	36.333169462879	1
10864	20857	36.888341102045	5
10864	20976	37.042863742327	6
10864	21692	37.646799261085	6
10864	23021	38.746799261085	10
10864	23666	39.351707393111	5
10864	24355	39.958980922976	6
10864	25055	40.563369544625	6
10864	26074	41.363369544625	7
10864	26319	41.564237380145	1
10864	26456	41.680529218171	1
10864	26843	42.020412072562	3
10864	27374	42.4251006908	4
10864	28816	43.6251006908	13
10864	29122	43.829322651825	1
10864	29916	44.534296588129	7
10864	30504	45.134296588129	5
10864	30750	45.421010113963	5
10864	31819	46.321783986046	11
10864	32708	47.021783986046	9
10864	33186	47.432503128084	4
10864	33778	47.933351100014	4
10864	34186	48.239674436327	2
10864	34396	48.383139301612	3
10864	34821	48.688138024184	2
10864	35072	48.883339301612	5
10864	35209	48.986287139787	1
10864	35809	49.486287139787	4
10864	36659	50.194577866203	8
10864	37335	50.817442383502	9
10864	38940	52.120046988726	14
10864	39139	52.320046988726	1
10864	39293	52.506286873563	1
10864	39319	52.520073741251	1
10864	40053	53.122338917851	6
10864	40746	53.722338917851	6
10864	41242	54.122438927851	4
10864	42119	54.922438927851	7
10864	43141	55.725307301866	9
10864	44116	56.553474703633	2
10864	44742	57.153474703633	5
10864	45301	57.661027495045	5
10864	45795	58.061027495045	3
10864	46042	58.272011771209	1
10864	46341	58.474348180209	1
10864	46809	58.778963144876	3
10864	47622	59.378963144876	6
10864	48374	59.909188990503	2
10864	48576	60.095401020261	7
10864	49117	60.605839615718	5
10864	49359	60.815315108995	1
10864	49364	60.815625886827	9
10864	49507	60.915789416007	1
10864	50178	61.515789416007	5
10864	50658	61.919237588635	3
10864	50923	62.179678460571	2
10864	51129	62.321281245036	3
10864	51616	62.725916932799	4
10864	52258	63.425916932799	7
10864	53129	64.126016942799	7
10864	53746	64.626016942799	4
10864	54676	65.33559604198	7
10864	55282	65.74371551742	4
10864	56074	66.34371551742	5
10864	56446	66.650170174694	2
10864	56843	66.953910137336	2
10864	56865	66.987851530093	2
10864	58169	68.088285993082	11
10864	58445	68.288285993082	1
10864	58663	68.496656132545	2
10864	58975	68.740576988654	3
10864	59228	69.003427714169	4
10864	59483	69.205178822094	1
10864	61123	70.608779921749	15
10864	61391	70.908779921749	2
10864	62229	71.712814291343	7
10864	63340	72.61440351441	9
10864	63610	72.81440351441	1
10864	63873	73.121274595553	2
10864	64193	73.42426627196	2
10864	65249	74.262279061612	7
10864	65472	74.462279061612	1
10864	65569	74.599254867939	1
10864	65956	75.00014108186	4
10864	66734	75.80014108186	7
10864	67111	76.109053097424	3
10864	67522	76.506733087691	5
10864	68072	76.908889955909	4
10864	68625	77.308889955909	3
10864	69674	78.297532147983	2
10864	70105	78.607565108457	3
10864	70524	79.007565108457	3
10864	71027	79.413151687092	3
10864	71487	79.820473882394	3
10864	72405	80.524155771593	7
10864	73074	81.124155771593	6
10864	73609	81.633546843675	4
10864	73811	81.840306586524	2
10864	74642	82.640306586524	7
10864	75605	83.445746590305	7
10864	76169	83.854495459774	3
10864	76436	84.063635354123	1
10864	77007	84.469678691976	4
10864	77531	84.969678691976	4
10864	78570	85.892856104733	4
10864	78987	86.277452993773	12
10864	79372	86.580446319005	4
10864	79711	86.880446319005	2
10864	79958	87.085858859247	1
10864	79987	87.0945706675	3
10864	80635	87.587472409312	4
10864	81419	88.089540626478	5
10864	81741	88.289540626478	1
10864	82283	88.697124447743	1
10864	82964	89.197345639307	9
10864	82982	89.205706878619	2
10864	83006	89.211299468498	4
10864	83618	89.71233297697	1
10864	84273	90.31233297697	5
10864	84633	90.620978996666	2
10864	84647	90.629063359688	2
10864	85564	91.324235906569	6
10864	85709	91.438211148488	8
10864	86182	91.841032410973	4
10864	87495	92.941032410973	10
10864	87778	93.154239932167	3
10864	88275	93.56053602987	4
10864	88749	93.964854500592	3
10864	89513	94.767516899896	7
10864	89686	94.91915775984	8
10864	90367	95.41925776984	5
10864	90988	95.91925776984	5
10864	91580	96.419878008101	4
10864	92076	96.829170541738	3
10864	92385	97.08184971215	8
10864	92726	97.337140956034	6
10864	92915	97.491767344207	3
10864	92928	97.496202335702	5
10864	93278	97.745004274621	3
10864	93577	97.948571126446	3
10864	94198	98.448571126446	4
10864	95387	99.652853728727	2
10864	95600	99.861864358047	1
10864	96138	100.355750982539	21
10864	96161	100.367233500908	4
10864	96299	100.4702641342	1
10864	96573	100.6702641342	1
10864	96846	100.877069908147	1
10864	97274	101.27955979027	4
10864	97782	101.68553394612	3
10864	97914	101.790498745982	1
10864	99066	102.690498745982	9
10864	100625	103.935905731394	7
10864	100692	103.982214588081	7
10864	101103	104.298344613386	16
10864	101139	104.350118769359	3
10864	101631	104.756891456413	3
10864	101840	104.88420648543	9
10864	102489	105.393498716187	5
10864	103031	105.793498716187	3
10864	103793	106.303450375111	4
10864	103962	106.47483547101	4
10864	104038	106.512477317869	1
10864	104349	106.782022159211	2
10864	104390	106.818092503512	2
10864	104953	107.321039995897	5
10864	105175	107.521039995897	1
10864	105694	107.923379810679	3
10864	105937	108.123479820679	2
10864	106758	108.923479820679	7
10864	107249	109.318573787913	2
10864	107573	109.626619517716	2
10864	107687	109.728936589733	9
10864	108677	110.529036599733	9
10864	109244	111.029036599733	4
10864	109748	111.431575068666	3
10864	111387	112.660620771178	17
10864	111705	112.939296988308	17
10864	111712	112.94046736922	20
10864	111751	112.955912575867	4
10864	111996	113.143164446559	1
10864	112960	113.943264456559	8
10864	113410	114.343264456559	3
10864	113715	114.644480492509	2
10864	114569	115.447441953273	8
10864	114952	115.75260863321	12
10864	115062	115.853253551278	4
10864	115180	115.956660685242	1
10864	115532	116.258777493429	3
10864	116096	116.658777493429	3
10864	116316	116.797225160918	3
10864	117038	117.361935502527	6
10864	117281	117.566537330279	1
10864	117930	118.067086702922	5
10864	118608	118.667086702922	5
10864	118827	118.867680490241	1
10864	118830	118.872827310874	1
10864	119063	119.074791226958	1
10864	119075	119.07943408335	1
10864	119872	119.775409275384	7
10864	120255	120.080512698325	3
10864	120702	120.494486187956	3
10864	120900	120.608835175801	0
10864	121718	121.380613273709	3
10864	121982	121.583122608985	2
10864	122672	122.183122608985	5
10864	122694	122.188572199372	0
10864	123983	123.288572199372	10
10864	124228	123.489297736405	1
10864	124787	123.899486894945	3
10864	124967	124.032222064282	3
10864	125134	124.14182050327	1
10864	125947	124.84182050327	6
10864	126685	125.524021241473	5
10864	126748	125.548047392053	6
10864	126957	125.724219274042	1
10864	128768	127.227172013195	15
10864	129238	127.727172013195	4
10864	129487	127.92745895582	1
10864	129490	127.928043092947	1
10864	129974	128.330316734602	3
10864	129981	128.33388497834	3
10864	130291	128.537876671213	2
10864	130293	128.538789247525	2
10864	130652	128.84578840474	2
10864	131379	129.447638019789	6
10864	132595	130.547638019789	11
10864	132879	130.75512107274	1
10864	133509	131.266906672135	4
10864	133776	131.467006682135	2
10864	134243	131.876127906367	4
10864	134943	132.476227916367	7
10864	135853	133.276227916367	7
10864	136014	133.379059933176	0
10864	136560	133.779159943176	4
10864	136979	134.079159943176	2
10864	137430	134.38267767215	2
10864	138191	135.085697946404	7
10864	138286	135.185697946404	1
10864	138671	135.703918562182	4
10864	138890	136.10479308023	4
10865	134	20.10000001	0.875
10865	539	20.705490297195	0.375
10865	915	21.107812335076	0.75
10865	2121	22.007812335076	-0.375
10865	2490	22.209058754911	0.75
10865	3549	23.009058754911	-0.125
10865	3933	23.30975467417	0.75
10865	4456	23.717094405962	0.625
10865	4764	23.93111097716	0.625
10865	5138	24.236907787918	0.625
10865	6615	25.435173406515	-0.375
10865	6618	25.436907787918	-0.5
10865	6989	25.739379222558	0.75
10865	7131	25.840681946572	0.875
10865	7709	26.340681946572	0.5
10865	8059	26.643667713476	0.75
10865	8637	27.144753093123	0.375
10865	8954	27.444753093123	0.75
10865	9992	28.144853103123	0
10865	11163	29.068307919963	0.375
10865	12077	29.768307919963	0.25
10865	12804	30.3143339161	0.375
10865	12815	30.328404427716	0.875
10865	13842	31.232167088573	-0.125
10865	14314	31.632167088573	0.625
10865	14566	31.839011840023	0.875
10865	14820	32.056241460999	0.875
10865	14884	32.115053913048	0.875
10865	16515	33.322951192946	-0.5
10865	17072	33.822951192946	0.5
10865	17854	34.532167058837	0.25
10865	18168	34.834664835835	0.625
10865	18304	34.92247491186	0
10865	18728	35.22277898837	0.75
10865	18867	35.329172626846	0.875
10865	19924	36.129172626846	0
10865	20195	36.333169462879	0.875
10865	20857	36.888341102045	0.375
10865	20976	37.042863742327	0.25
10865	21692	37.646799261085	0.25
10865	23021	38.746799261085	-0.25
10865	23666	39.351707393111	0.375
10865	24355	39.958980922976	0.25
10865	25055	40.563369544625	0.25
10865	26074	41.363369544625	0.125
10865	26319	41.564237380145	0.875
10865	26456	41.680529218171	0.875
10865	26843	42.020412072562	0.625
10865	27374	42.4251006908	0.5
10865	28816	43.6251006908	-0.625
10865	29122	43.829322651825	0.875
10865	29916	44.534296588129	0.125
10865	30504	45.134296588129	0.375
10865	30750	45.421010113963	0.375
10865	31819	46.321783986046	-0.375
10865	32708	47.021783986046	-0.125
10865	33186	47.432503128084	0.5
10865	33778	47.933351100014	0.5
10865	34186	48.239674436327	0.75
10865	34396	48.383139301612	0.625
10865	34821	48.688138024184	0.75
10865	35072	48.883339301612	0.375
10865	35209	48.986287139787	0.875
10865	35809	49.486287139787	0.5
10865	36659	50.194577866203	0
10865	37335	50.817442383502	-0.125
10865	38940	52.120046988726	-0.75
10865	39139	52.320046988726	0.875
10865	39293	52.506286873563	0.875
10865	39319	52.520073741251	0.875
10865	40053	53.122338917851	0.25
10865	40746	53.722338917851	0.25
10865	41242	54.122438927851	0.5
10865	42119	54.922438927851	0.125
10865	43141	55.725307301866	-0.125
10865	44116	56.553474703633	0.75
10865	44742	57.153474703633	0.375
10865	45301	57.661027495045	0.375
10865	45795	58.061027495045	0.625
10865	46042	58.272011771209	0.875
10865	46341	58.474348180209	0.875
10865	46809	58.778963144876	0.625
10865	47622	59.378963144876	0.25
10865	48374	59.909188990503	0.75
10865	48576	60.095401020261	0.125
10865	49117	60.605839615718	0.375
10865	49359	60.815315108995	0.875
10865	49364	60.815625886827	0
10865	49507	60.915789416007	0.875
10865	50178	61.515789416007	0.375
10865	50658	61.919237588635	0.625
10865	50923	62.179678460571	0.75
10865	51129	62.321281245036	0.625
10865	51616	62.725916932799	0.5
10865	52258	63.425916932799	0.125
10865	53129	64.126016942799	0.125
10865	53746	64.626016942799	0.5
10865	54676	65.33559604198	0.125
10865	55282	65.74371551742	0.5
10865	56074	66.34371551742	0.375
10865	56446	66.650170174694	0.75
10865	56843	66.953910137336	0.75
10865	56865	66.987851530093	0.75
10865	58169	68.088285993082	-0.375
10865	58445	68.288285993082	0.875
10865	58663	68.496656132545	0.75
10865	58975	68.740576988654	0.625
10865	59228	69.003427714169	0.5
10865	59483	69.205178822094	0.875
10865	61123	70.608779921749	-0.875
10865	61391	70.908779921749	0.75
10865	62229	71.712814291343	0.125
10865	63340	72.61440351441	-0.125
10865	63610	72.81440351441	0.875
10865	63873	73.121274595553	0.75
10865	64193	73.42426627196	0.75
10865	65249	74.262279061612	0.125
10865	65472	74.462279061612	0.875
10865	65569	74.599254867939	0.875
10865	65956	75.00014108186	0.5
10865	66734	75.80014108186	0.125
10865	67111	76.109053097424	0.625
10865	67522	76.506733087691	0.375
10865	68072	76.908889955909	0.5
10865	68625	77.308889955909	0.625
10865	69674	78.297532147983	0.75
10865	70105	78.607565108457	0.625
10865	70524	79.007565108457	0.625
10865	71027	79.413151687092	0.625
10865	71487	79.820473882394	0.625
10865	72405	80.524155771593	0.125
10865	73074	81.124155771593	0.25
10865	73609	81.633546843675	0.5
10865	73811	81.840306586524	0.75
10865	74642	82.640306586524	0.125
10865	75605	83.445746590305	0.125
10865	76169	83.854495459774	0.625
10865	76436	84.063635354123	0.875
10865	77007	84.469678691976	0.5
10865	77531	84.969678691976	0.5
10865	78570	85.892856104733	0.5
10865	78987	86.277452993773	-0.5
10865	79372	86.580446319005	0.5
10865	79711	86.880446319005	0.75
10865	79958	87.085858859247	0.875
10865	79987	87.0945706675	0.625
10865	80635	87.587472409312	0.5
10865	81419	88.089540626478	0.375
10865	81741	88.289540626478	0.875
10865	82283	88.697124447743	0.875
10865	82964	89.197345639307	-0.125
10865	82982	89.205706878619	0.75
10865	83006	89.211299468498	0.5
10865	83618	89.71233297697	0.875
10865	84273	90.31233297697	0.375
10865	84633	90.620978996666	0.75
10865	84647	90.629063359688	0.75
10865	85564	91.324235906569	0.25
10865	85709	91.438211148488	0
10865	86182	91.841032410973	0.5
10865	87495	92.941032410973	-0.25
10865	87778	93.154239932167	0.625
10865	88275	93.56053602987	0.5
10865	88749	93.964854500592	0.625
10865	89513	94.767516899896	0.125
10865	89686	94.91915775984	0
10865	90367	95.41925776984	0.375
10865	90988	95.91925776984	0.375
10865	91580	96.419878008101	0.5
10865	92076	96.829170541738	0.625
10865	92385	97.08184971215	0
10865	92726	97.337140956034	0.25
10865	92915	97.491767344207	0.625
10865	92928	97.496202335702	0.375
10865	93278	97.745004274621	0.625
10865	93577	97.948571126446	0.625
10865	94198	98.448571126446	0.5
10865	95387	99.652853728727	0.75
10865	95600	99.861864358047	0.875
10865	96138	100.355750982539	-1.625
10865	96161	100.367233500908	0.5
10865	96299	100.4702641342	0.875
10865	96573	100.6702641342	0.875
10865	96846	100.877069908147	0.875
10865	97274	101.27955979027	0.5
10865	97782	101.68553394612	0.625
10865	97914	101.790498745982	0.875
10865	99066	102.690498745982	-0.125
10865	100625	103.935905731394	0.125
10865	100692	103.982214588081	0.125
10865	101103	104.298344613386	-1
10865	101139	104.350118769359	0.625
10865	101631	104.756891456413	0.625
10865	101840	104.88420648543	-0.125
10865	102489	105.393498716187	0.375
10865	103031	105.793498716187	0.625
10865	103793	106.303450375111	0.5
10865	103962	106.47483547101	0.5
10865	104038	106.512477317869	0.875
10865	104349	106.782022159211	0.75
10865	104390	106.818092503512	0.75
10865	104953	107.321039995897	0.375
10865	105175	107.521039995897	0.875
10865	105694	107.923379810679	0.625
10865	105937	108.123479820679	0.75
10865	106758	108.923479820679	0.125
10865	107249	109.318573787913	0.75
10865	107573	109.626619517716	0.75
10865	107687	109.728936589733	-0.125
10865	108677	110.529036599733	-0.125
10865	109244	111.029036599733	0.5
10865	109748	111.431575068666	0.625
10865	111387	112.660620771178	-1.125
10865	111705	112.939296988308	-1.125
10865	111712	112.94046736922	-1.5
10865	111751	112.955912575867	0.5
10865	111996	113.143164446559	0.875
10865	112960	113.943264456559	0
10865	113410	114.343264456559	0.625
10865	113715	114.644480492509	0.75
10865	114569	115.447441953273	0
10865	114952	115.75260863321	-0.5
10865	115062	115.853253551278	0.5
10865	115180	115.956660685242	0.875
10865	115532	116.258777493429	0.625
10865	116096	116.658777493429	0.625
10865	116316	116.797225160918	0.625
10865	117038	117.361935502527	0.25
10865	117281	117.566537330279	0.875
10865	117930	118.067086702922	0.375
10865	118608	118.667086702922	0.375
10865	118827	118.867680490241	0.875
10865	118830	118.872827310874	0.875
10865	119063	119.074791226958	0.875
10865	119075	119.07943408335	0.875
10865	119872	119.775409275384	0.125
10865	120255	120.080512698325	0.625
10865	120702	120.494486187956	0.625
10865	120900	120.608835175801	1
10865	121718	121.380613273709	0.625
10865	121982	121.583122608985	0.75
10865	122672	122.183122608985	0.375
10865	122694	122.188572199372	1
10865	123983	123.288572199372	-0.25
10865	124228	123.489297736405	0.875
10865	124787	123.899486894945	0.625
10865	124967	124.032222064282	0.625
10865	125134	124.14182050327	0.875
10865	125947	124.84182050327	0.25
10865	126685	125.524021241473	0.375
10865	126748	125.548047392053	0.25
10865	126957	125.724219274042	0.875
10865	128768	127.227172013195	-0.875
10865	129238	127.727172013195	0.5
10865	129487	127.92745895582	0.875
10865	129490	127.928043092947	0.875
10865	129974	128.330316734602	0.625
10865	129981	128.33388497834	0.625
10865	130291	128.537876671213	0.75
10865	130293	128.538789247525	0.75
10865	130652	128.84578840474	0.75
10865	131379	129.447638019789	0.25
10865	132595	130.547638019789	-0.375
10865	132879	130.75512107274	0.875
10865	133509	131.266906672135	0.5
10865	133776	131.467006682135	0.75
10865	134243	131.876127906367	0.5
10865	134943	132.476227916367	0.125
10865	135853	133.276227916367	0.125
10865	136014	133.379059933176	1
10865	136560	133.779159943176	0.5
10865	136979	134.079159943176	0.75
10865	137430	134.38267767215	0.75
10865	138191	135.085697946404	0.125
10865	138286	135.185697946404	0.875
10865	138671	135.703918562182	0.5
10865	138890	136.10479308023	0.5
10866	134	20.10000001	0.1
10866	539	20.705490297195	0.6
10866	915	21.107812335076	0.2
10866	2121	22.007812335076	0.9
10866	2490	22.209058754911	0.2
10866	3549	23.009058754911	0.8
10866	3933	23.30975467417	0.3
10866	4456	23.717094405962	0.4
10866	4764	23.93111097716	0.4
10866	5138	24.236907787918	0.3
10866	6615	25.435173406515	1
10866	6618	25.436907787918	1.2
10866	6989	25.739379222558	0.3
10866	7131	25.840681946572	0.1
10866	7709	26.340681946572	0.5
10866	8059	26.643667713476	0.3
10866	8637	27.144753093123	0.5
10866	8954	27.444753093123	0.3
10866	9992	28.144853103123	0.7
10866	11163	29.068307919963	0.5
10866	12077	29.768307919963	0.7
10866	12804	30.3143339161	0.6
10866	12815	30.328404427716	0.2
10866	13842	31.232167088573	0.9
10866	14314	31.632167088573	0.4
10866	14566	31.839011840023	0.2
10866	14820	32.056241460999	0.2
10866	14884	32.115053913048	0.2
10866	16515	33.322951192946	1.2
10866	17072	33.822951192946	0.5
10866	17854	34.532167058837	0.7
10866	18168	34.834664835835	0.3
10866	18304	34.92247491186	0.9
10866	18728	35.22277898837	0.3
10866	18867	35.329172626846	0.1
10866	19924	36.129172626846	0.8
10866	20195	36.333169462879	0.2
10866	20857	36.888341102045	0.6
10866	20976	37.042863742327	0.7
10866	21692	37.646799261085	0.6
10866	23021	38.746799261085	1.1
10866	23666	39.351707393111	0.6
10866	24355	39.958980922976	0.6
10866	25055	40.563369544625	0.6
10866	26074	41.363369544625	0.8
10866	26319	41.564237380145	0.2
10866	26456	41.680529218171	0.1
10866	26843	42.020412072562	0.4
10866	27374	42.4251006908	0.4
10866	28816	43.6251006908	1.2
10866	29122	43.829322651825	0.2
10866	29916	44.534296588129	0.7
10866	30504	45.134296588129	0.6
10866	30750	45.421010113963	0.6
10866	31819	46.321783986046	0.9
10866	32708	47.021783986046	0.7
10866	33186	47.432503128084	0.4
10866	33778	47.933351100014	0.5
10866	34186	48.239674436327	0.3
10866	34396	48.383139301612	0.3
10866	34821	48.688138024184	0.3
10866	35072	48.883339301612	0.6
10866	35209	48.986287139787	0.1
10866	35809	49.486287139787	0.5
10866	36659	50.194577866203	0.7
10866	37335	50.817442383502	0.9
10866	38940	52.120046988726	1.3
10866	39139	52.320046988726	0.2
10866	39293	52.506286873563	0.2
10866	39319	52.520073741251	0.2
10866	40053	53.122338917851	0.6
10866	40746	53.722338917851	0.6
10866	41242	54.122438927851	0.4
10866	42119	54.922438927851	0.8
10866	43141	55.725307301866	0.8
10866	44116	56.553474703633	0.2
10866	44742	57.153474703633	0.6
10866	45301	57.661027495045	0.5
10866	45795	58.061027495045	0.4
10866	46042	58.272011771209	0.2
10866	46341	58.474348180209	0.2
10866	46809	58.778963144876	0.3
10866	47622	59.378963144876	0.6
10866	48374	59.909188990503	0.3
10866	48576	60.095401020261	0.7
10866	49117	60.605839615718	0.6
10866	49359	60.815315108995	0.2
10866	49364	60.815625886827	0.9
10866	49507	60.915789416007	0.1
10866	50178	61.515789416007	0.6
10866	50658	61.919237588635	0.4
10866	50923	62.179678460571	0.3
10866	51129	62.321281245036	0.4
10866	51616	62.725916932799	0.4
10866	52258	63.425916932799	0.7
10866	53129	64.126016942799	0.7
10866	53746	64.626016942799	0.5
10866	54676	65.33559604198	0.7
10866	55282	65.74371551742	0.4
10866	56074	66.34371551742	0.6
10866	56446	66.650170174694	0.3
10866	56843	66.953910137336	0.3
10866	56865	66.987851530093	0.3
10866	58169	68.088285993082	1.1
10866	58445	68.288285993082	0.2
10866	58663	68.496656132545	0.2
10866	58975	68.740576988654	0.4
10866	59228	69.003427714169	0.5
10866	59483	69.205178822094	0.2
10866	61123	70.608779921749	1.4
10866	61391	70.908779921749	0.3
10866	62229	71.712814291343	0.8
10866	63340	72.61440351441	0.9
10866	63610	72.81440351441	0.2
10866	63873	73.121274595553	0.3
10866	64193	73.42426627196	0.3
10866	65249	74.262279061612	0.6
10866	65472	74.462279061612	0.2
10866	65569	74.599254867939	0.2
10866	65956	75.00014108186	0.4
10866	66734	75.80014108186	0.8
10866	67111	76.109053097424	0.3
10866	67522	76.506733087691	0.6
10866	68072	76.908889955909	0.4
10866	68625	77.308889955909	0.4
10866	69674	78.297532147983	0.3
10866	70105	78.607565108457	0.3
10866	70524	79.007565108457	0.4
10866	71027	79.413151687092	0.4
10866	71487	79.820473882394	0.4
10866	72405	80.524155771593	0.7
10866	73074	81.124155771593	0.6
10866	73609	81.633546843675	0.5
10866	73811	81.840306586524	0.2
10866	74642	82.640306586524	0.8
10866	75605	83.445746590305	0.8
10866	76169	83.854495459774	0.4
10866	76436	84.063635354123	0.2
10866	77007	84.469678691976	0.4
10866	77531	84.969678691976	0.5
10866	78570	85.892856104733	0.5
10866	78987	86.277452993773	1.3
10866	79372	86.580446319005	0.3
10866	79711	86.880446319005	0.3
10866	79958	87.085858859247	0.2
10866	79987	87.0945706675	0.4
10866	80635	87.587472409312	0.5
10866	81419	88.089540626478	0.5
10866	81741	88.289540626478	0.2
10866	82283	88.697124447743	0.2
10866	82964	89.197345639307	0.9
10866	82982	89.205706878619	0.3
10866	83006	89.211299468498	0.5
10866	83618	89.71233297697	0.1
10866	84273	90.31233297697	0.6
10866	84633	90.620978996666	0.3
10866	84647	90.629063359688	0.3
10866	85564	91.324235906569	0.7
10866	85709	91.438211148488	0.8
10866	86182	91.841032410973	0.4
10866	87495	92.941032410973	1.1
10866	87778	93.154239932167	0.4
10866	88275	93.56053602987	0.4
10866	88749	93.964854500592	0.4
10866	89513	94.767516899896	0.8
10866	89686	94.91915775984	0.9
10866	90367	95.41925776984	0.5
10866	90988	95.91925776984	0.5
10866	91580	96.419878008101	0.5
10866	92076	96.829170541738	0.4
10866	92385	97.08184971215	0.7
10866	92726	97.337140956034	0.5
10866	92915	97.491767344207	0.4
10866	92928	97.496202335702	0.6
10866	93278	97.745004274621	0.4
10866	93577	97.948571126446	0.2
10866	94198	98.448571126446	0.5
10866	95387	99.652853728727	0.3