file 829356 1369933137                                          
version 2
run Stability-18-20130528-00:51:21-21385
attr configname Stability
attr datetime 20130528-00:51:21
attr experiment Stability
attr inifile omnetpp.ini
attr iterationvars $0=1e5
attr iterationvars2 "$0=1e5, $repetition=8"
attr measurement $0=1e5
attr network Network
attr processid 21385
attr repetition 8
attr replication #8
attr resultdir results
attr runnumber 18
attr seedset 18
vector 1842  Network.churner  inGoingSizeSig:vector  ETV
1842	723924 105432 22 66558 20 204820.930355836666 4097 0 0 0 0
vector 1746  Network.dyn_peer[0]  lookupHopsSig:vector  ETV
1746	6435 6991 30 65529 120.1 201720.91863584232 256 0 3 357 567
vector 1747  Network.dyn_peer[0]  lookupStabilitySig:vector  ETV
1747	13426 7908 30 65529 120.1 201720.91863584232 256 0.625 1 211.375 175.609375
vector 1748  Network.dyn_peer[0]  lookupTimeSig:vector  ETV
1748	21334 7499 30 65529 120.1 201720.91863584232 256 0 0.4 54.9 12.87
vector 1749  Network.dyn_peer[1]  lookupHopsSig:vector  ETV
1749	28833 6983 61 65559 220.1 201820.726768610909 256 0 3 332 512
vector 1750  Network.dyn_peer[1]  lookupStabilitySig:vector  ETV
1750	35816 7882 61 65559 220.1 201820.726768610909 256 0.625 1 214.5 181
vector 1751  Network.dyn_peer[1]  lookupTimeSig:vector  ETV
1751	43698 7473 61 65559 220.1 201820.726768610909 256 0 0.4 52.4 12.08
vector 1752  Network.dyn_peer[2]  lookupHopsSig:vector  ETV
1752	51171 6970 94 65593 320.2 201921.024807323361 256 0 3 341 533
vector 1753  Network.dyn_peer[2]  lookupStabilitySig:vector  ETV
1753	58141 7889 94 65593 320.2 201921.024807323361 256 0.625 1 213.375 179.078125
vector 1754  Network.dyn_peer[2]  lookupTimeSig:vector  ETV
1754	66030 7470 94 65593 320.2 201921.024807323361 256 0 0.4 53.3 12.43
vector 1755  Network.dyn_peer[3]  lookupHopsSig:vector  ETV
1755	73500 7009 132 65629 420.2 202020.727249001209 256 0 2 334 510
vector 1756  Network.dyn_peer[3]  lookupStabilitySig:vector  ETV
1756	80509 7905 132 65629 420.2 202020.727249001209 256 0.75 1 214.25 180.46875
vector 1757  Network.dyn_peer[3]  lookupTimeSig:vector  ETV
1757	88414 7501 132 65629 420.2 202020.727249001209 256 0 0.3 52.6 12.22
vector 1758  Network.dyn_peer[4]  lookupHopsSig:vector  ETV
1758	95915 7021 160 65662 520.1 202120.736286465025 256 0 3 335 515
vector 1759  Network.dyn_peer[4]  lookupStabilitySig:vector  ETV
1759	102936 7932 160 65662 520.1 202120.736286465025 256 0.625 1 214.125 180.296875
vector 1760  Network.dyn_peer[4]  lookupTimeSig:vector  ETV
1760	110868 7517 160 65662 520.1 202120.736286465025 256 0 0.4 52.7 12.27
vector 1761  Network.dyn_peer[5]  lookupHopsSig:vector  ETV
1761	118385 7035 197 65694 620.2 202221.119183381469 256 0 3 352 590
vector 1762  Network.dyn_peer[5]  lookupStabilitySig:vector  ETV
1762	125420 7918 197 65694 620.2 202221.119183381469 256 0.625 1 212 177.21875
vector 1763  Network.dyn_peer[5]  lookupTimeSig:vector  ETV
1763	133338 7521 197 65694 620.2 202221.119183381469 256 0 0.4 54.4 13.18
vector 1764  Network.dyn_peer[6]  lookupHopsSig:vector  ETV
1764	140859 6933 228 65726 720.2 202320.92033305117 256 0 3 364 616
vector 1765  Network.dyn_peer[6]  lookupStabilitySig:vector  ETV
1765	147792 7829 228 65726 720.2 202320.92033305117 256 0.625 1 210.5 174.625
vector 1766  Network.dyn_peer[6]  lookupTimeSig:vector  ETV
1766	155621 7429 228 65726 720.2 202320.92033305117 256 0 0.4 55.6 13.46
vector 1767  Network.dyn_peer[7]  lookupHopsSig:vector  ETV
1767	163050 7043 257 65756 820 202420.908452486565 256 0 3 343 553
vector 1768  Network.dyn_peer[7]  lookupStabilitySig:vector  ETV
1768	170093 7925 257 65756 820 202420.908452486565 256 0.625 1 213.125 178.890625
vector 1769  Network.dyn_peer[7]  lookupTimeSig:vector  ETV
1769	178018 7529 257 65756 820 202420.908452486565 256 0 0.4 53.5 12.75
vector 1770  Network.dyn_peer[8]  lookupHopsSig:vector  ETV
1770	185547 7030 290 65800 920.2 202521.010109819075 256 0 3 345 537
vector 1771  Network.dyn_peer[8]  lookupStabilitySig:vector  ETV
1771	192577 7944 290 65800 920.2 202521.010109819075 256 0.625 1 212.875 178.140625
vector 1772  Network.dyn_peer[8]  lookupTimeSig:vector  ETV
1772	200521 7532 290 65800 920.2 202521.010109819075 256 0 0.4 53.7 12.51
vector 1773  Network.dyn_peer[9]  lookupHopsSig:vector  ETV
1773	208053 6993 319 65833 1020.1 202621.026883830289 256 0 3 348 550
vector 1774  Network.dyn_peer[9]  lookupStabilitySig:vector  ETV
1774	215046 7908 319 65833 1020.1 202621.026883830289 256 0.625 1 212.5 177.59375
vector 1775  Network.dyn_peer[9]  lookupTimeSig:vector  ETV
1775	222954 7495 319 65833 1020.1 202621.026883830289 256 0 0.4 54 12.58
vector 1776  Network.dyn_peer[10]  lookupHopsSig:vector  ETV
1776	230449 7039 353 65870 1120.2 202720.954745509474 256 0 3 346 554
vector 1777  Network.dyn_peer[10]  lookupStabilitySig:vector  ETV
1777	237488 7931 353 65870 1120.2 202720.954745509474 256 0.625 1 212.75 178.15625
vector 1778  Network.dyn_peer[10]  lookupTimeSig:vector  ETV
1778	245419 7531 353 65870 1120.2 202720.954745509474 256 0 0.4 53.8 12.8
vector 1779  Network.dyn_peer[11]  lookupHopsSig:vector  ETV
1779	252950 7022 384 65900 1220 202820.815669646164 256 0 3 333 511
vector 1780  Network.dyn_peer[11]  lookupStabilitySig:vector  ETV
1780	259972 7930 384 65900 1220 202820.815669646164 256 0.625 1 214.375 180.734375
vector 1781  Network.dyn_peer[11]  lookupTimeSig:vector  ETV
1781	267902 7516 384 65900 1220 202820.815669646164 256 0 0.4 52.5 12.03
vector 1782  Network.dyn_peer[12]  lookupHopsSig:vector  ETV
1782	275418 7005 416 65933 1320.1 202920.822492222308 256 0 3 355 573
vector 1783  Network.dyn_peer[12]  lookupStabilitySig:vector  ETV
1783	282423 7908 416 65933 1320.1 202920.822492222308 256 0.625 1 211.625 176.203125
vector 1784  Network.dyn_peer[12]  lookupTimeSig:vector  ETV
1784	290331 7505 416 65933 1320.1 202920.822492222308 256 0 0.4 54.7 12.93
vector 1785  Network.dyn_peer[13]  lookupHopsSig:vector  ETV
1785	297836 6978 448 65965 1420.1 203021.019154001364 256 0 3 336 506
vector 1786  Network.dyn_peer[13]  lookupStabilitySig:vector  ETV
1786	304814 7904 448 65965 1420.1 203021.019154001364 256 0.625 1 214 179.90625
vector 1787  Network.dyn_peer[13]  lookupTimeSig:vector  ETV
1787	312718 7482 448 65965 1420.1 203021.019154001364 256 0 0.4 52.8 12.02
vector 1788  Network.dyn_peer[14]  lookupHopsSig:vector  ETV
1788	320200 6942 477 66001 1520.2 203121.026636710937 256 0 3 350 564
vector 1789  Network.dyn_peer[14]  lookupStabilitySig:vector  ETV
1789	327142 7842 477 66001 1520.2 203121.026636710937 256 0.625 1 212.25 177.3125
vector 1790  Network.dyn_peer[14]  lookupTimeSig:vector  ETV
1790	334984 7438 477 66001 1520.2 203121.026636710937 256 0 0.4 54.2 12.74
vector 1791  Network.dyn_peer[15]  lookupHopsSig:vector  ETV
1791	342422 6999 522 66035 1620.2 203221.035085277843 256 0 3 352 572
vector 1792  Network.dyn_peer[15]  lookupStabilitySig:vector  ETV
1792	349421 7906 522 66035 1620.2 203221.035085277843 256 0.625 1 212 176.9375
vector 1793  Network.dyn_peer[15]  lookupTimeSig:vector  ETV
1793	357327 7497 522 66035 1620.2 203221.035085277843 256 0 0.4 54.4 12.9
vector 1794  Network.dyn_peer[16]  lookupHopsSig:vector  ETV
1794	364824 7054 554 66066 1720.1 203320.816867176736 256 0 3 351 551
vector 1795  Network.dyn_peer[16]  lookupStabilitySig:vector  ETV
1795	371878 7972 554 66066 1720.1 203320.816867176736 256 0.625 1 212.125 176.859375
vector 1796  Network.dyn_peer[16]  lookupTimeSig:vector  ETV
1796	379850 7560 554 66066 1720.1 203320.816867176736 256 0 0.4 54.3 12.71
vector 1797  Network.dyn_peer[17]  lookupHopsSig:vector  ETV
1797	387410 7045 590 66102 1820 203420.850157411475 256 0 3 338 522
vector 1798  Network.dyn_peer[17]  lookupStabilitySig:vector  ETV
1798	394455 7951 590 66102 1820 203420.850157411475 256 0.625 1 213.75 179.65625
vector 1799  Network.dyn_peer[17]  lookupTimeSig:vector  ETV
1799	402406 7541 590 66102 1820 203420.850157411475 256 0 0.4 53 12.38
vector 1800  Network.dyn_peer[18]  lookupHopsSig:vector  ETV
1800	409947 7053 629 66136 1920.1 203521.012064526998 256 0 3 349 561
vector 1801  Network.dyn_peer[18]  lookupStabilitySig:vector  ETV
1801	417000 7947 629 66136 1920.1 203521.012064526998 256 0.625 1 212.375 177.515625
vector 1802  Network.dyn_peer[18]  lookupTimeSig:vector  ETV
1802	424947 7547 629 66136 1920.1 203521.012064526998 256 0 0.4 54.1 13.03
vector 1803  Network.dyn_peer[19]  lookupHopsSig:vector  ETV
1803	432494 6985 670 66167 2020.1 203620.917306328522 256 0 3 365 603
vector 1804  Network.dyn_peer[19]  lookupStabilitySig:vector  ETV
1804	439479 7885 670 66167 2020.1 203620.917306328522 256 0.625 1 210.375 174.171875
vector 1805  Network.dyn_peer[19]  lookupTimeSig:vector  ETV
1805	447364 7487 670 66167 2020.1 203620.917306328522 256 0 0.4 55.7 13.45
vector 1806  Network.dyn_peer[20]  lookupHopsSig:vector  ETV
1806	454851 6993 701 66199 2120 203720.914411515163 256 0 3 357 585
vector 1807  Network.dyn_peer[20]  lookupStabilitySig:vector  ETV
1807	461844 7886 701 66199 2120 203720.914411515163 256 0.625 1 211.375 175.890625
vector 1808  Network.dyn_peer[20]  lookupTimeSig:vector  ETV
1808	469730 7489 701 66199 2120 203720.914411515163 256 0 0.4 54.9 13.15
vector 1809  Network.dyn_peer[21]  lookupHopsSig:vector  ETV
1809	477219 7009 736 66227 2220.2 203820.707442655607 256 0 3 344 536
vector 1810  Network.dyn_peer[21]  lookupStabilitySig:vector  ETV
1810	484228 7919 736 66227 2220.2 203820.707442655607 256 0.625 1 213 178.375
vector 1811  Network.dyn_peer[21]  lookupTimeSig:vector  ETV
1811	492147 7509 736 66227 2220.2 203820.707442655607 256 0 0.4 53.6 12.42
vector 1812  Network.dyn_peer[22]  lookupHopsSig:vector  ETV
1812	499656 7006 768 66266 2320.2 203920.86586747914 256 0 3 362 594
vector 1813  Network.dyn_peer[22]  lookupStabilitySig:vector  ETV
1813	506662 7916 768 66266 2320.2 203920.86586747914 256 0.625 1 210.75 174.78125
vector 1814  Network.dyn_peer[22]  lookupTimeSig:vector  ETV
1814	514578 7510 768 66266 2320.2 203920.86586747914 256 0 0.4 55.4 13.2
vector 1815  Network.dyn_peer[23]  lookupHopsSig:vector  ETV
1815	522088 6978 804 66296 2420.2 204020.719283315617 256 0 3 354 568
vector 1816  Network.dyn_peer[23]  lookupStabilitySig:vector  ETV
1816	529066 7873 804 66296 2420.2 204020.719283315617 256 0.625 1 211.75 176.375
vector 1817  Network.dyn_peer[23]  lookupTimeSig:vector  ETV
1817	536939 7476 804 66296 2420.2 204020.719283315617 256 0 0.4 54.6 13.08
vector 1818  Network.dyn_peer[24]  lookupHopsSig:vector  ETV
1818	544415 6947 836 66333 2520.2 204120.940737040232 256 0 3 346 564
vector 1819  Network.dyn_peer[24]  lookupStabilitySig:vector  ETV
1819	551362 7835 836 66333 2520.2 204120.940737040232 256 0.625 1 212.75 178.3125
vector 1820  Network.dyn_peer[24]  lookupTimeSig:vector  ETV
1820	559197 7435 836 66333 2520.2 204120.940737040232 256 0 0.4 53.8 13.04
vector 1821  Network.dyn_peer[25]  lookupHopsSig:vector  ETV
1821	566632 7033 871 66364 2620.1 204221.009458479881 256 0 3 346 562
vector 1822  Network.dyn_peer[25]  lookupStabilitySig:vector  ETV
1822	573665 7926 871 66364 2620.1 204221.009458479881 256 0.625 1 212.75 178.28125
vector 1823  Network.dyn_peer[25]  lookupTimeSig:vector  ETV
1823	581591 7523 871 66364 2620.1 204221.009458479881 256 0 0.4 53.8 12.76
vector 1824  Network.dyn_peer[26]  lookupHopsSig:vector  ETV
1824	589114 7002 899 66396 2720 204320.917835685518 256 0 3 341 529
vector 1825  Network.dyn_peer[26]  lookupStabilitySig:vector  ETV
1825	596116 7910 899 66396 2720 204320.917835685518 256 0.625 1 213.375 179.015625
vector 1826  Network.dyn_peer[26]  lookupTimeSig:vector  ETV
1826	604026 7500 899 66396 2720 204320.917835685518 256 0 0.4 53.3 12.55
vector 1827  Network.dyn_peer[27]  lookupHopsSig:vector  ETV
1827	611526 7020 932 66424 2820.1 204420.706178128981 256 0 3 353 577
vector 1828  Network.dyn_peer[27]  lookupStabilitySig:vector  ETV
1828	618546 7928 932 66424 2820.1 204420.706178128981 256 0.625 1 211.875 176.765625
vector 1829  Network.dyn_peer[27]  lookupTimeSig:vector  ETV
1829	626474 7518 932 66424 2820.1 204420.706178128981 256 0 0.4 54.5 12.99
vector 1830  Network.dyn_peer[28]  lookupHopsSig:vector  ETV
1830	633992 7023 962 66463 2920.1 204520.950587959216 256 0 3 352 566
vector 1831  Network.dyn_peer[28]  lookupStabilitySig:vector  ETV
1831	641015 7910 962 66463 2920.1 204520.950587959216 256 0.625 1 212 176.84375
vector 1832  Network.dyn_peer[28]  lookupTimeSig:vector  ETV
1832	648925 7517 962 66463 2920.1 204520.950587959216 256 0 0.4 54.4 13.06
vector 1833  Network.dyn_peer[29]  lookupHopsSig:vector  ETV
1833	656442 7076 994 66492 3020.2 204620.610082325624 256 0 3 343 539
vector 1834  Network.dyn_peer[29]  lookupStabilitySig:vector  ETV
1834	663518 7979 994 66492 3020.2 204620.610082325624 256 0.625 1 213.125 178.671875
vector 1835  Network.dyn_peer[29]  lookupTimeSig:vector  ETV
1835	671497 7572 994 66492 3020.2 204620.610082325624 256 0 0.4 53.5 12.57
vector 1836  Network.dyn_peer[30]  lookupHopsSig:vector  ETV
1836	679069 6998 1028 66524 3120 204720.737774004913 256 0 3 341 529
vector 1837  Network.dyn_peer[30]  lookupStabilitySig:vector  ETV
1837	686067 7906 1028 66524 3120 204720.737774004913 256 0.625 1 213.375 179.015625
vector 1838  Network.dyn_peer[30]  lookupTimeSig:vector  ETV
1838	693973 7496 1028 66524 3120 204720.737774004913 256 0 0.4 53.3 12.31
vector 1839  Network.dyn_peer[31]  lookupHopsSig:vector  ETV
1839	701469 7021 1060 66556 3220.2 204820.920692630013 256 0 3 372 630
vector 1840  Network.dyn_peer[31]  lookupStabilitySig:vector  ETV
1840	708490 7913 1060 66556 3220.2 204820.920692630013 256 0.625 1 209.5 172.84375
vector 1841  Network.dyn_peer[31]  lookupTimeSig:vector  ETV
1841	716403 7521 1060 66556 3220.2 204820.920692630013 256 0 0.4 56.4 13.74
