version 2
run Stability-124-20130528-00:58:47-21385
attr configname Stability
attr datetime 20130528-00:58:47
attr experiment Stability
attr inifile omnetpp.ini
attr iterationvars $0=1e-6
attr iterationvars2 "$0=1e-6, $repetition=4"
attr measurement $0=1e-6
attr network Network
attr processid 21385
attr repetition 4
attr replication #4
attr resultdir results
attr runnumber 124
attr seedset 124

vector 12124  Network.churner  inGoingSizeSig:vector  ETV
vector 12031  Network.dyn_peer[1]  lookupHopsSig:vector  ETV
vector 12032  Network.dyn_peer[1]  lookupStabilitySig:vector  ETV
vector 12033  Network.dyn_peer[1]  lookupTimeSig:vector  ETV
vector 12058  Network.dyn_peer[10]  lookupHopsSig:vector  ETV
vector 12059  Network.dyn_peer[10]  lookupStabilitySig:vector  ETV
vector 12060  Network.dyn_peer[10]  lookupTimeSig:vector  ETV
vector 12061  Network.dyn_peer[11]  lookupHopsSig:vector  ETV
vector 12062  Network.dyn_peer[11]  lookupStabilitySig:vector  ETV
vector 12063  Network.dyn_peer[11]  lookupTimeSig:vector  ETV
vector 12076  Network.dyn_peer[16]  lookupHopsSig:vector  ETV
vector 12077  Network.dyn_peer[16]  lookupStabilitySig:vector  ETV
vector 12078  Network.dyn_peer[16]  lookupTimeSig:vector  ETV
vector 12103  Network.dyn_peer[25]  lookupHopsSig:vector  ETV
vector 12104  Network.dyn_peer[25]  lookupStabilitySig:vector  ETV
vector 12105  Network.dyn_peer[25]  lookupTimeSig:vector  ETV
vector 12028  Network.dyn_peer[0]  lookupHopsSig:vector  ETV
vector 12029  Network.dyn_peer[0]  lookupStabilitySig:vector  ETV
vector 12030  Network.dyn_peer[0]  lookupTimeSig:vector  ETV
vector 12034  Network.dyn_peer[2]  lookupHopsSig:vector  ETV
vector 12035  Network.dyn_peer[2]  lookupStabilitySig:vector  ETV
vector 12036  Network.dyn_peer[2]  lookupTimeSig:vector  ETV
vector 12037  Network.dyn_peer[3]  lookupHopsSig:vector  ETV
vector 12038  Network.dyn_peer[3]  lookupStabilitySig:vector  ETV
vector 12039  Network.dyn_peer[3]  lookupTimeSig:vector  ETV
vector 12043  Network.dyn_peer[5]  lookupHopsSig:vector  ETV
vector 12044  Network.dyn_peer[5]  lookupStabilitySig:vector  ETV
vector 12045  Network.dyn_peer[5]  lookupTimeSig:vector  ETV
vector 12046  Network.dyn_peer[6]  lookupHopsSig:vector  ETV
vector 12047  Network.dyn_peer[6]  lookupStabilitySig:vector  ETV
vector 12048  Network.dyn_peer[6]  lookupTimeSig:vector  ETV
vector 12049  Network.dyn_peer[7]  lookupHopsSig:vector  ETV
vector 12050  Network.dyn_peer[7]  lookupStabilitySig:vector  ETV
vector 12051  Network.dyn_peer[7]  lookupTimeSig:vector  ETV
vector 12055  Network.dyn_peer[9]  lookupHopsSig:vector  ETV
vector 12056  Network.dyn_peer[9]  lookupStabilitySig:vector  ETV
vector 12057  Network.dyn_peer[9]  lookupTimeSig:vector  ETV
vector 12109  Network.dyn_peer[27]  lookupHopsSig:vector  ETV
vector 12110  Network.dyn_peer[27]  lookupStabilitySig:vector  ETV
vector 12111  Network.dyn_peer[27]  lookupTimeSig:vector  ETV
vector 12118  Network.dyn_peer[30]  lookupHopsSig:vector  ETV
vector 12119  Network.dyn_peer[30]  lookupStabilitySig:vector  ETV
vector 12120  Network.dyn_peer[30]  lookupTimeSig:vector  ETV
vector 12040  Network.dyn_peer[4]  lookupHopsSig:vector  ETV
vector 12041  Network.dyn_peer[4]  lookupStabilitySig:vector  ETV
vector 12042  Network.dyn_peer[4]  lookupTimeSig:vector  ETV
vector 12052  Network.dyn_peer[8]  lookupHopsSig:vector  ETV
vector 12053  Network.dyn_peer[8]  lookupStabilitySig:vector  ETV
vector 12054  Network.dyn_peer[8]  lookupTimeSig:vector  ETV
vector 12082  Network.dyn_peer[18]  lookupHopsSig:vector  ETV
vector 12083  Network.dyn_peer[18]  lookupStabilitySig:vector  ETV
vector 12084  Network.dyn_peer[18]  lookupTimeSig:vector  ETV
vector 12097  Network.dyn_peer[23]  lookupHopsSig:vector  ETV
vector 12098  Network.dyn_peer[23]  lookupStabilitySig:vector  ETV
vector 12099  Network.dyn_peer[23]  lookupTimeSig:vector  ETV
vector 12115  Network.dyn_peer[29]  lookupHopsSig:vector  ETV
vector 12116  Network.dyn_peer[29]  lookupStabilitySig:vector  ETV
vector 12117  Network.dyn_peer[29]  lookupTimeSig:vector  ETV
vector 12064  Network.dyn_peer[12]  lookupHopsSig:vector  ETV
vector 12065  Network.dyn_peer[12]  lookupStabilitySig:vector  ETV
vector 12066  Network.dyn_peer[12]  lookupTimeSig:vector  ETV
vector 12073  Network.dyn_peer[15]  lookupHopsSig:vector  ETV
vector 12074  Network.dyn_peer[15]  lookupStabilitySig:vector  ETV
vector 12075  Network.dyn_peer[15]  lookupTimeSig:vector  ETV
vector 12079  Network.dyn_peer[17]  lookupHopsSig:vector  ETV
vector 12080  Network.dyn_peer[17]  lookupStabilitySig:vector  ETV
vector 12081  Network.dyn_peer[17]  lookupTimeSig:vector  ETV
vector 12085  Network.dyn_peer[19]  lookupHopsSig:vector  ETV
vector 12086  Network.dyn_peer[19]  lookupStabilitySig:vector  ETV
vector 12087  Network.dyn_peer[19]  lookupTimeSig:vector  ETV
vector 12091  Network.dyn_peer[21]  lookupHopsSig:vector  ETV
vector 12092  Network.dyn_peer[21]  lookupStabilitySig:vector  ETV
vector 12093  Network.dyn_peer[21]  lookupTimeSig:vector  ETV
vector 12094  Network.dyn_peer[22]  lookupHopsSig:vector  ETV
vector 12095  Network.dyn_peer[22]  lookupStabilitySig:vector  ETV
vector 12096  Network.dyn_peer[22]  lookupTimeSig:vector  ETV
vector 12100  Network.dyn_peer[24]  lookupHopsSig:vector  ETV
vector 12101  Network.dyn_peer[24]  lookupStabilitySig:vector  ETV
vector 12102  Network.dyn_peer[24]  lookupTimeSig:vector  ETV
vector 12121  Network.dyn_peer[31]  lookupHopsSig:vector  ETV
vector 12122  Network.dyn_peer[31]  lookupStabilitySig:vector  ETV
vector 12123  Network.dyn_peer[31]  lookupTimeSig:vector  ETV
vector 12067  Network.dyn_peer[13]  lookupHopsSig:vector  ETV
vector 12068  Network.dyn_peer[13]  lookupStabilitySig:vector  ETV
vector 12069  Network.dyn_peer[13]  lookupTimeSig:vector  ETV
vector 12088  Network.dyn_peer[20]  lookupHopsSig:vector  ETV
vector 12089  Network.dyn_peer[20]  lookupStabilitySig:vector  ETV
vector 12090  Network.dyn_peer[20]  lookupTimeSig:vector  ETV
vector 12106  Network.dyn_peer[26]  lookupHopsSig:vector  ETV
vector 12107  Network.dyn_peer[26]  lookupStabilitySig:vector  ETV
vector 12108  Network.dyn_peer[26]  lookupTimeSig:vector  ETV
vector 12112  Network.dyn_peer[28]  lookupHopsSig:vector  ETV
vector 12113  Network.dyn_peer[28]  lookupStabilitySig:vector  ETV
vector 12114  Network.dyn_peer[28]  lookupTimeSig:vector  ETV
vector 12070  Network.dyn_peer[14]  lookupHopsSig:vector  ETV
vector 12071  Network.dyn_peer[14]  lookupStabilitySig:vector  ETV
vector 12072  Network.dyn_peer[14]  lookupTimeSig:vector  ETV
12028	145	20.100000001	1
12028	352	20.400000001	2
12028	858	21.108629976742	6
12028	1167	21.409260483047	2
12028	1439	21.61069924443	1
12028	2180	22.114357695408	6
12028	2627	22.414357695408	4
12028	3585	23.217257504862	7
12028	3714	23.322228071806	3
12028	4263	23.722057162041	5
12028	4444	23.830337269352	4
12028	4540	23.922422576411	6
12028	4716	24.024788558692	0
12028	4732	24.025910030164	0
12028	5145	24.328012041411	2
12028	5909	24.928112042411	6
12028	6174	25.128112042411	2
12028	7117	25.745273208832	4
12028	7399	25.950450414972	1
12028	7440	25.959952344293	0
12028	8210	26.559952344293	5
12028	8293	26.648965397462	3
12028	8582	26.860687893835	2
12028	8811	27.056000815572	3
12028	9281	27.441360668212	3
12028	9773	27.941360668212	4
12028	10390	28.448856944886	5
12028	10854	28.852958152604	4
12028	11844	29.763489686276	2
12028	12797	30.606363224471	5
12028	13379	31.106363224471	4
12028	14183	31.798216520611	2
12028	14203	31.812438483359	8
12028	14524	32.109062466863	2
12028	14558	32.169689814052	9
12028	15451	32.775631393602	8
12028	15796	33.083379087578	3
12028	16074	33.385049767314	2
12028	16284	33.586232901216	1
12028	16531	33.794505345977	1
12028	16844	34.095184624696	4
12028	17145	34.395184624696	2
12028	17427	34.697008083893	2
12028	18636	35.700466940816	9
12028	19295	36.306400244402	5
12028	19774	36.646778810584	6
12028	19832	36.715794874323	4
12028	20178	37.024581882695	2
12028	20303	37.094911751802	4
12028	20410	37.157649213912	6
12028	20643	37.35797624491	2
12028	21190	37.85797624491	5
12028	21441	38.158699414505	2
12028	21838	38.566706869656	3
12028	22086	38.770358941601	1
12028	22330	38.981438220001	7
12028	22530	39.171600029361	3
12028	22541	39.179864846576	3
12028	23360	39.887725122207	7
12028	24554	40.881764412107	8
12028	26254	42.281764412107	14
12028	26905	42.715476898345	3
12028	26964	42.784233740178	5
12028	27339	43.126933384301	3
12028	27674	43.436036202037	2
12028	27921	43.644663881057	2
12028	28537	44.144663881057	4
12028	29301	44.750110283168	6
12028	30040	45.254904421943	6
12028	31057	46.054904421943	10
12028	31534	46.357385001371	3
12028	31561	46.420775933274	3
12028	31909	46.663690816268	2
12028	32668	47.273020474531	6
12028	33318	47.773020474531	5
12028	33950	48.274252764081	6
12028	34454	48.679347949238	3
12028	34464	48.681275213681	3
12028	34734	48.882569380481	2
12028	34901	49.082569380481	1
12028	35167	49.389352891847	2
12028	35505	49.695564735207	2
12028	35523	49.719724262873	2
12028	35696	49.898455655268	1
12028	35846	50.029321407968	2
12028	36010	50.197248617157	2
12028	36030	50.201811786471	2
12028	37300	51.304371084935	11
12028	37768	51.704371084935	4
12028	38729	52.506947894807	7
12028	39024	52.80788539317	2
12028	39173	52.973546612248	6
12028	39810	53.582692541498	6
12028	40163	53.882692541498	2
12028	40710	54.28920294758	3
12028	41263	54.68930294858	4
12028	42031	55.18930294858	4
12028	42425	55.396905497492	2
12028	42862	55.696905497492	2
12028	43298	56.0971208484	3
12028	44420	57.003106181401	8
12028	44605	57.111066902841	0
12028	45019	57.418374136853	2
12028	45869	58.123818839104	7
12028	46144	58.423818839104	2
12028	46611	58.82688465395	3
12028	47266	59.327460643426	5
12028	47590	59.533050592741	1
12028	47931	59.831824487684	3
12028	47947	59.837917777998	3
12028	47972	59.841536010123	2
12028	48205	60.048409413708	1
12028	48207	60.048587755978	1
12028	48222	60.052576918885	1
12028	48314	60.129179141897	2
12028	48454	60.232557151567	4
12028	48594	60.359261204433	2
12028	48900	60.559361205433	2
12028	50060	61.559361205433	9
12028	50463	61.866733277182	2
12028	50729	62.040339388997	2
12028	50967	62.206502240009	8
12028	51494	62.607159085358	4
12028	51873	62.907159085358	2
12028	52099	63.113800935512	1
12028	52478	63.416570794583	3
12028	53232	64.016570794583	6
12028	53312	64.080682960336	5
12028	53730	64.321050527664	2
12028	53988	64.510342398161	2
12028	54008	64.523225477249	1
12028	54578	64.933239906032	4
12028	54885	65.133239906032	1
12028	55426	65.537164834106	3
12028	56011	65.945002555561	5
12028	56650	66.450582277737	4
12028	57008	66.760083334701	2
12028	57611	67.361610816788	5
12028	58122	67.839613345022	8
12028	58251	67.935576782442	1
12028	58581	68.143595877839	2
12028	58831	68.343595877839	1
12028	59532	68.850833029793	4
12028	59979	69.254759989017	3
12028	61668	70.775038987606	6
12028	62903	71.775038987606	9
12028	63495	72.276181810158	4
12028	63710	72.4825494277	1
12028	63887	72.592024565751	1
12028	64397	73.092024565751	4
12028	65031	73.693504541732	5
12028	65689	74.301794418805	7
12028	65701	74.313649843509	3
12028	65980	74.510800717601	1
12028	66485	74.915430270773	3
12028	66643	75.01925733568	7
12028	66980	75.326465658739	2
12028	67096	75.416316552892	4
12028	67764	76.024338758531	7
12028	68548	76.624338758531	6
12028	69245	77.181500196671	7
12028	69639	77.488771345992	2
12028	69814	77.630860038871	11
12028	70040	77.836756617687	2
12028	70303	78.036756617687	1
12028	70827	78.459764414704	3
12028	71741	79.166038460767	7
12028	72208	79.566038460767	3
12028	72780	79.97021398864	4
12028	73188	80.291996327415	6
12028	73396	80.501734499048	1
12028	73894	80.986535173196	2
12028	73993	81.0776935348	10
12028	74932	81.978183049503	9
12028	75948	82.778183049503	7
12028	76343	83.079199601655	2
12028	76825	83.479299602655	4
12028	78119	84.479299602655	10
12028	78272	84.596784033721	4
12028	79220	85.306727269258	8
12028	79493	85.51241686515	2
12028	80135	86.01241686515	4
12028	80338	86.219143009585	1
12028	80384	86.23349407618	1
12028	80898	86.637226206568	4
12028	81261	86.937226206568	2
12028	81897	87.437548998259	4
12028	82344	87.84079997142	3
12028	82355	87.842741237781	4
12028	82601	88.04442895399	1
12028	82603	88.04509221334	1
12028	82898	88.24519221434	3
12028	83297	88.54519221434	2
12028	83680	88.846993378662	3
12028	84201	89.251521493252	3
12028	84437	89.451868823261	1
12028	84995	89.857484396563	4
12028	85795	90.557484396563	8
12028	86406	91.070484776603	4
12028	86823	91.373266466481	1
12028	87700	92.073366467481	7
12028	88043	92.373366467481	2
12028	88785	93.077070997353	7
12028	89536	93.714033067128	3
12028	89749	93.887926739463	7
12028	90402	94.321920060852	5
12028	90606	94.490588382491	5
12028	90627	94.496972869773	5
12028	91895	95.403252612978	10
12028	92573	96.003252612978	5
12028	92990	96.315095897545	2
12028	93057	96.394517104423	6
12028	93251	96.541501088481	4
12028	93467	96.716204145406	3
12028	94408	97.51870215375	8
12028	95078	98.11870215375	5
12028	95866	98.740076858773	3
12028	96042	98.928253292683	8
12028	96389	99.255359137115	4
12028	96563	99.430424314452	5
12028	96704	99.537643190565	2
12028	96832	99.644935810461	2
12028	98331	100.947833838209	14
12028	99203	101.647833838209	6
12028	99628	101.955487557159	3
12028	99968	102.255487557159	2
12028	100332	102.559293005995	2
12028	100504	102.678409943455	1
12028	101012	103.083384219639	4
12028	101215	103.283384219639	1
12028	101550	103.588071323328	3
12028	101912	103.894505214181	2
12028	102109	104.098809618868	1
12028	102371	104.36247488709	2
12028	102423	104.403341220838	4
12028	102729	104.701411058939	5
12028	102732	104.704149885011	2
12028	102903	104.866943907444	4
12028	103579	105.375345507865	6
12028	104716	106.375345507865	10
12028	105463	106.797885933746	2
12028	106318	107.497885933746	7
12028	106702	107.804155714624	3
12028	107305	108.304155714624	4
12028	108613	109.41365371732	12
12028	109168	109.9184928166	4
12028	109438	110.125881136573	1
12028	109666	110.325981137573	2
12028	110221	110.725981137573	4
12028	110451	110.930247634276	1
12028	111285	111.644833310475	7
12028	111385	111.739970364944	8
12028	111577	111.8539741879	1
12028	112001	112.163939596592	3
12028	112868	112.863939596592	7
12028	113547	113.464039597592	7
12028	114465	114.164039597592	6
12028	114841	114.470886310363	2
12028	115388	114.978549513162	6
12028	115870	115.478549513162	4
12028	116357	115.880171710042	3
12028	116877	116.281729394912	4
12028	118000	117.181729394912	9
12028	118491	117.587699544541	3
12028	118599	117.697842119019	2
12028	118999	118.094551525329	4
12028	119540	118.600010167415	8
12028	119544	118.6003987444	8
12028	119821	118.8004987454	2
12028	120237	119.200522823855	4
12028	120642	119.496276183004	2
12028	121332	120.096376184004	6
12028	121714	120.396376184004	3
12028	122100	120.805526119067	3
12028	122368	121.11357048706	2
12028	123094	121.813519503845	5
12028	123101	121.818161897362	8
12028	123336	122.016567181288	1
12028	123342	122.020548968073	1
12028	123361	122.033705318167	1
12028	123496	122.134217552881	1
12028	123761	122.334217552881	1
12028	124349	122.744034660542	5
12028	124941	123.144181238504	4
12028	125628	123.644181238504	4
12028	126310	124.144281239504	5
12028	126895	124.544281239504	3
12028	127664	125.152816377944	5
12028	127880	125.364788710931	4
12028	128816	126.169253831548	9
12028	129139	126.469253831548	2
12028	129402	126.671270517632	1
12028	130360	127.47636821201	7
12028	130599	127.617893598993	8
12028	131110	127.985165397193	4
12028	132076	128.890565126349	9
12028	132606	129.390565126349	4
12028	132822	129.603967717665	1
12028	132846	129.610215414214	0
12028	133647	130.310215414214	6
12028	134330	130.811523542432	10
12028	134746	131.112633479828	3
12028	135331	131.615045125234	5
12029	145	20.100000001	0.875
12029	352	20.400000001	0.75
12029	858	21.108629976742	0.25
12029	1167	21.409260483047	0.75
12029	1439	21.61069924443	0.875
12029	2180	22.114357695408	0.25
12029	2627	22.414357695408	0.5
12029	3585	23.217257504862	0.125
12029	3714	23.322228071806	0.625
12029	4263	23.722057162041	0.375
12029	4444	23.830337269352	0.5
12029	4540	23.922422576411	0.25
12029	4716	24.024788558692	1
12029	4732	24.025910030164	1
12029	5145	24.328012041411	0.75
12029	5909	24.928112042411	0.25
12029	6174	25.128112042411	0.75
12029	7117	25.745273208832	0.5
12029	7399	25.950450414972	0.875
12029	7440	25.959952344293	1
12029	8210	26.559952344293	0.375
12029	8293	26.648965397462	0.625
12029	8582	26.860687893835	0.75
12029	8811	27.056000815572	0.625
12029	9281	27.441360668212	0.625
12029	9773	27.941360668212	0.5
12029	10390	28.448856944886	0.375
12029	10854	28.852958152604	0.5
12029	11844	29.763489686276	0.75
12029	12797	30.606363224471	0.375
12029	13379	31.106363224471	0.5
12029	14183	31.798216520611	0.75
12029	14203	31.812438483359	0
12029	14524	32.109062466863	0.75
12029	14558	32.169689814052	-0.125
12029	15451	32.775631393602	0
12029	15796	33.083379087578	0.625
12029	16074	33.385049767314	0.75
12029	16284	33.586232901216	0.875
12029	16531	33.794505345977	0.875
12029	16844	34.095184624696	0.5
12029	17145	34.395184624696	0.75
12029	17427	34.697008083893	0.75
12029	18636	35.700466940816	-0.125
12029	19295	36.306400244402	0.375
12029	19774	36.646778810584	0.25
12029	19832	36.715794874323	0.5
12029	20178	37.024581882695	0.75
12029	20303	37.094911751802	0.5
12029	20410	37.157649213912	0.25
12029	20643	37.35797624491	0.75
12029	21190	37.85797624491	0.375
12029	21441	38.158699414505	0.75
12029	21838	38.566706869656	0.625
12029	22086	38.770358941601	0.875
12029	22330	38.981438220001	0.125
12029	22530	39.171600029361	0.625
12029	22541	39.179864846576	0.625
12029	23360	39.887725122207	0.125
12029	24554	40.881764412107	0
12029	26254	42.281764412107	-0.75
12029	26905	42.715476898345	0.625
12029	26964	42.784233740178	0.375
12029	27339	43.126933384301	0.625
12029	27674	43.436036202037	0.75
12029	27921	43.644663881057	0.75
12029	28537	44.144663881057	0.5
12029	29301	44.750110283168	0.25
12029	30040	45.254904421943	0.25
12029	31057	46.054904421943	-0.25
12029	31534	46.357385001371	0.625
12029	31561	46.420775933274	0.625
12029	31909	46.663690816268	0.75
12029	32668	47.273020474531	0.25
12029	33318	47.773020474531	0.375
12029	33950	48.274252764081	0.25
12029	34454	48.679347949238	0.625
12029	34464	48.681275213681	0.625
12029	34734	48.882569380481	0.75
12029	34901	49.082569380481	0.875
12029	35167	49.389352891847	0.75
12029	35505	49.695564735207	0.75
12029	35523	49.719724262873	0.75
12029	35696	49.898455655268	0.875
12029	35846	50.029321407968	0.75
12029	36010	50.197248617157	0.75
12029	36030	50.201811786471	0.75
12029	37300	51.304371084935	-0.375
12029	37768	51.704371084935	0.5
12029	38729	52.506947894807	0.125
12029	39024	52.80788539317	0.75
12029	39173	52.973546612248	0.25
12029	39810	53.582692541498	0.25
12029	40163	53.882692541498	0.75
12029	40710	54.28920294758	0.625
12029	41263	54.68930294858	0.5
12029	42031	55.18930294858	0.5
12029	42425	55.396905497492	0.75
12029	42862	55.696905497492	0.75
12029	43298	56.0971208484	0.625
12029	44420	57.003106181401	0
12029	44605	57.111066902841	1
12029	45019	57.418374136853	0.75
12029	45869	58.123818839104	0.125
12029	46144	58.423818839104	0.75
12029	46611	58.82688465395	0.625
12029	47266	59.327460643426	0.375
12029	47590	59.533050592741	0.875
12029	47931	59.831824487684	0.625
12029	47947	59.837917777998	0.625
12029	47972	59.841536010123	0.75
12029	48205	60.048409413708	0.875
12029	48207	60.048587755978	0.875
12029	48222	60.052576918885	0.875
12029	48314	60.129179141897	0.75
12029	48454	60.232557151567	0.5
12029	48594	60.359261204433	0.75
12029	48900	60.559361205433	0.75
12029	50060	61.559361205433	-0.125
12029	50463	61.866733277182	0.75
12029	50729	62.040339388997	0.75
12029	50967	62.206502240009	0
12029	51494	62.607159085358	0.5
12029	51873	62.907159085358	0.75
12029	52099	63.113800935512	0.875
12029	52478	63.416570794583	0.625
12029	53232	64.016570794583	0.25
12029	53312	64.080682960336	0.375
12029	53730	64.321050527664	0.75
12029	53988	64.510342398161	0.75
12029	54008	64.523225477249	0.875
12029	54578	64.933239906032	0.55555555224419
12029	54885	65.133239906032	0.875
12029	55426	65.537164834106	0.625
12029	56011	65.945002555561	0.375
12029	56650	66.450582277737	0.5
12029	57008	66.760083334701	0.75
12029	57611	67.361610816788	0.375
12029	58122	67.839613345022	0
12029	58251	67.935576782442	0.875
12029	58581	68.143595877839	0.75
12029	58831	68.343595877839	0.875
12029	59532	68.850833029793	0.5
12029	59979	69.254759989017	0.625
12029	61668	70.775038987606	0.25
12029	62903	71.775038987606	-0.125
12029	63495	72.276181810158	0.5
12029	63710	72.4825494277	0.875
12029	63887	72.592024565751	0.875
12029	64397	73.092024565751	0.5
12029	65031	73.693504541732	0.375
12029	65689	74.301794418805	0.125
12029	65701	74.313649843509	0.625
12029	65980	74.510800717601	0.875
12029	66485	74.915430270773	0.625
12029	66643	75.01925733568	0.125
12029	66980	75.326465658739	0.75
12029	67096	75.416316552892	0.5
12029	67764	76.024338758531	0.125
12029	68548	76.624338758531	0.25
12029	69245	77.181500196671	0.125
12029	69639	77.488771345992	0.75
12029	69814	77.630860038871	-0.375
12029	70040	77.836756617687	0.75
12029	70303	78.036756617687	0.875
12029	70827	78.459764414704	0.625
12029	71741	79.166038460767	0.125
12029	72208	79.566038460767	0.625
12029	72780	79.97021398864	0.5
12029	73188	80.291996327415	0.25
12029	73396	80.501734499048	0.875
12029	73894	80.986535173196	0.75
12029	73993	81.0776935348	-0.25
12029	74932	81.978183049503	-0.125
12029	75948	82.778183049503	0.125
12029	76343	83.079199601655	0.75
12029	76825	83.479299602655	0.5
12029	78119	84.479299602655	-0.25
12029	78272	84.596784033721	0.5
12029	79220	85.306727269258	0
12029	79493	85.51241686515	0.75
12029	80135	86.01241686515	0.5
12029	80338	86.219143009585	0.875
12029	80384	86.23349407618	0.875
12029	80898	86.637226206568	0.5
12029	81261	86.937226206568	0.75
12029	81897	87.437548998259	0.5
12029	82344	87.84079997142	0.625
12029	82355	87.842741237781	0.5
12029	82601	88.04442895399	0.875
12029	82603	88.04509221334	0.875
12029	82898	88.24519221434	0.625
12029	83297	88.54519221434	0.75
12029	83680	88.846993378662	0.625
12029	84201	89.251521493252	0.625
12029	84437	89.451868823261	0.875
12029	84995	89.857484396563	0.5
12029	85795	90.557484396563	0
12029	86406	91.070484776603	0.5
12029	86823	91.373266466481	0.875
12029	87700	92.073366467481	0.125
12029	88043	92.373366467481	0.75
12029	88785	93.077070997353	0.125
12029	89536	93.714033067128	0.625
12029	89749	93.887926739463	0.125
12029	90402	94.321920060852	0.375
12029	90606	94.490588382491	0.375
12029	90627	94.496972869773	0.375
12029	91895	95.403252612978	-0.25
12029	92573	96.003252612978	0.375
12029	92990	96.315095897545	0.75
12029	93057	96.394517104423	0.25
12029	93251	96.541501088481	0.5
12029	93467	96.716204145406	0.625
12029	94408	97.51870215375	0
12029	95078	98.11870215375	0.375
12029	95866	98.740076858773	0.625
12029	96042	98.928253292683	0
12029	96389	99.255359137115	0.5
12029	96563	99.430424314452	0.375
12029	96704	99.537643190565	0.75
12029	96832	99.644935810461	0.75
12029	98331	100.947833838209	-0.75
12029	99203	101.647833838209	0.25
12029	99628	101.955487557159	0.625
12029	99968	102.255487557159	0.75
12029	100332	102.559293005995	0.75
12029	100504	102.678409943455	0.875
12029	101012	103.083384219639	0.5
12029	101215	103.283384219639	0.875
12029	101550	103.588071323328	0.625
12029	101912	103.894505214181	0.75
12029	102109	104.098809618868	0.875
12029	102371	104.36247488709	0.75
12029	102423	104.403341220838	0.5
12029	102729	104.701411058939	0.375
12029	102732	104.704149885011	0.75
12029	102903	104.866943907444	0.5
12029	103579	105.375345507865	0.25
12029	104716	106.375345507865	-0.25
12029	105463	106.797885933746	0.75
12029	106318	107.497885933746	0.125
12029	106702	107.804155714624	0.625
12029	107305	108.304155714624	0.5
12029	108613	109.41365371732	-0.5
12029	109168	109.9184928166	0.5
12029	109438	110.125881136573	0.875
12029	109666	110.325981137573	0.75
12029	110221	110.725981137573	0.5
12029	110451	110.930247634276	0.875
12029	111285	111.644833310475	0.125
12029	111385	111.739970364944	0
12029	111577	111.8539741879	0.875
12029	112001	112.163939596592	0.625
12029	112868	112.863939596592	0.125
12029	113547	113.464039597592	0.125
12029	114465	114.164039597592	0.25
12029	114841	114.470886310363	0.75
12029	115388	114.978549513162	0.25
12029	115870	115.478549513162	0.5
12029	116357	115.880171710042	0.625
12029	116877	116.281729394912	0.5
12029	118000	117.181729394912	-0.125
12029	118491	117.587699544541	0.625
12029	118599	117.697842119019	0.75
12029	118999	118.094551525329	0.5
12029	119540	118.600010167415	0
12029	119544	118.6003987444	0
12029	119821	118.8004987454	0.75
12029	120237	119.200522823855	0.5
12029	120642	119.496276183004	0.75
12029	121332	120.096376184004	0.25
12029	121714	120.396376184004	0.625
12029	122100	120.805526119067	0.625
12029	122368	121.11357048706	0.75
12029	123094	121.813519503845	0.375
12029	123101	121.818161897362	0
12029	123336	122.016567181288	0.875
12029	123342	122.020548968073	0.875
12029	123361	122.033705318167	0.875
12029	123496	122.134217552881	0.875
12029	123761	122.334217552881	0.875
12029	124349	122.744034660542	0.375
12029	124941	123.144181238504	0.5
12029	125628	123.644181238504	0.5
12029	126310	124.144281239504	0.375
12029	126895	124.544281239504	0.625
12029	127664	125.152816377944	0.375
12029	127880	125.364788710931	0.5
12029	128816	126.169253831548	-0.125
12029	129139	126.469253831548	0.75
12029	129402	126.671270517632	0.875
12029	130360	127.47636821201	0.125
12029	130599	127.617893598993	0
12029	131110	127.985165397193	0.5
12029	132076	128.890565126349	-0.125
12029	132606	129.390565126349	0.5
12029	132822	129.603967717665	0.875
12029	132846	129.610215414214	1
12029	133647	130.310215414214	0.25
12029	134330	130.811523542432	-0.25
12029	134746	131.112633479828	0.625
12029	135331	131.615045125234	0.375
12030	145	20.100000001	0.1
12030	352	20.400000001	0.3
12030	858	21.108629976742	0.7
12030	1167	21.409260483047	0.3
12030	1439	21.61069924443	0.2
12030	2180	22.114357695408	0.5
12030	2627	22.414357695408	0.3
12030	3585	23.217257504862	0.8
12030	3714	23.322228071806	0.4
12030	4263	23.722057162041	0.5
12030	4444	23.830337269352	0.5
12030	4540	23.922422576411	0.6
12030	4716	24.024788558692	0.1
12030	4732	24.025910030164	0.1
12030	5145	24.328012041411	0.3
12030	5909	24.928112042411	0.6
12030	6174	25.128112042411	0.2
12030	7117	25.745273208832	0.3
12030	7399	25.950450414972	0.2
12030	7440	25.959952344293	0
12030	8210	26.559952344293	0.6
12030	8293	26.648965397462	0.4
12030	8582	26.860687893835	0.3
12030	8811	27.056000815572	0.4
12030	9281	27.441360668212	0.3
12030	9773	27.941360668212	0.5
12030	10390	28.448856944886	0.5
12030	10854	28.852958152604	0.4
12030	11844	29.763489686276	0.2
12030	12797	30.606363224471	0.5
12030	13379	31.106363224471	0.5
12030	14183	31.798216520611	0.3
12030	14203	31.812438483359	0.7
12030	14524	32.109062466863	0.3
12030	14558	32.169689814052	0.8
12030	15451	32.775631393602	0.6
12030	15796	33.083379087578	0.3
12030	16074	33.385049767314	0.3
12030	16284	33.586232901216	0.2
12030	16531	33.794505345977	0.2
12030	16844	34.095184624696	0.3
12030	17145	34.395184624696	0.3
12030	17427	34.697008083893	0.3
12030	18636	35.700466940816	1
12030	19295	36.306400244402	0.6
12030	19774	36.646778810584	0.7
12030	19832	36.715794874323	0.4
12030	20178	37.024581882695	0.3
12030	20303	37.094911751802	0.4
12030	20410	37.157649213912	0.5
12030	20643	37.35797624491	0.2
12030	21190	37.85797624491	0.5
12030	21441	38.158699414505	0.3
12030	21838	38.566706869656	0.4
12030	22086	38.770358941601	0.2
12030	22330	38.981438220001	0.7
12030	22530	39.171600029361	0.4
12030	22541	39.179864846576	0.4
12030	23360	39.887725122207	0.7
12030	24554	40.881764412107	0.8
12030	26254	42.281764412107	1.4
12030	26905	42.715476898345	0.4
12030	26964	42.784233740178	0.5
12030	27339	43.126933384301	0.4
12030	27674	43.436036202037	0.3
12030	27921	43.644663881057	0.2
12030	28537	44.144663881057	0.5
12030	29301	44.750110283168	0.6
12030	30040	45.254904421943	0.5
12030	31057	46.054904421943	0.8
12030	31534	46.357385001371	0.3
12030	31561	46.420775933274	0.3
12030	31909	46.663690816268	0.3
12030	32668	47.273020474531	0.6
12030	33318	47.773020474531	0.5
12030	33950	48.274252764081	0.5
12030	34454	48.679347949238	0.4
12030	34464	48.681275213681	0.4
12030	34734	48.882569380481	0.2
12030	34901	49.082569380481	0.2
12030	35167	49.389352891847	0.3
12030	35505	49.695564735207	0.3
12030	35523	49.719724262873	0.3
12030	35696	49.898455655268	0.2
12030	35846	50.029321407968	0.3
12030	36010	50.197248617157	0.3
12030	36030	50.201811786471	0.3
12030	37300	51.304371084935	1.1
12030	37768	51.704371084935	0.4
12030	38729	52.506947894807	0.8
12030	39024	52.80788539317	0.3
12030	39173	52.973546612248	0.7
12030	39810	53.582692541498	0.6
12030	40163	53.882692541498	0.3
12030	40710	54.28920294758	0.4
12030	41263	54.68930294858	0.4
12030	42031	55.18930294858	0.5
12030	42425	55.396905497492	0.2
12030	42862	55.696905497492	0.3
12030	43298	56.0971208484	0.4
12030	44420	57.003106181401	0.9
12030	44605	57.111066902841	0.1
12030	45019	57.418374136853	0.3
12030	45869	58.123818839104	0.7
12030	46144	58.423818839104	0.3
12030	46611	58.82688465395	0.4
12030	47266	59.327460643426	0.5
12030	47590	59.533050592741	0.2
12030	47931	59.831824487684	0.4
12030	47947	59.837917777998	0.4
12030	47972	59.841536010123	0.3
12030	48205	60.048409413708	0.2
12030	48207	60.048587755978	0.2
12030	48222	60.052576918885	0.2
12030	48314	60.129179141897	0.3
12030	48454	60.232557151567	0.4
12030	48594	60.359261204433	0.3
12030	48900	60.559361205433	0.2
12030	50060	61.559361205433	1
12030	50463	61.866733277182	0.3
12030	50729	62.040339388997	0.3
12030	50967	62.206502240009	0.9
12030	51494	62.607159085358	0.4
12030	51873	62.907159085358	0.3
12030	52099	63.113800935512	0.2
12030	52478	63.416570794583	0.3
12030	53232	64.016570794583	0.6
12030	53312	64.080682960336	0.5
12030	53730	64.321050527664	0.3
12030	53988	64.510342398161	0.2