file 1021967 1369933134                                         
version 2
run Stability-100-20130528-00:57:00-21385
attr configname Stability
attr datetime 20130528-00:57:00
attr experiment Stability
attr inifile omnetpp.ini
attr iterationvars $0=1e-4
attr iterationvars2 "$0=1e-4, $repetition=0"
attr measurement $0=1e-4
attr network Network
attr processid 21385
attr repetition 0
attr replication #0
attr resultdir results
attr runnumber 100
attr seedset 100
vector 9796  Network.churner  inGoingSizeSig:vector  ETV
9796	897822 124145 23 135958 20 135.107223491817 4097 0 31 125746 3881076
vector 9736  Network.dyn_peer[12]  lookupHopsSig:vector  ETV
9736	338996 9033 66 135704 20.0000013 134.106322617671 307 0 19 1328 9112
vector 9737  Network.dyn_peer[12]  lookupStabilitySig:vector  ETV
9737	348029 10046 66 135704 20.0000013 134.106322617671 307 -1.375 1 141.16666662693 117.46566355081
vector 9738  Network.dyn_peer[12]  lookupTimeSig:vector  ETV
9738	358075 9600 66 135704 20.0000013 134.106322617671 307 0 1.6 148.3 97.23
vector 9748  Network.dyn_peer[16]  lookupHopsSig:vector  ETV
9748	450883 9312 82 134977 20.0000017 133.470622372887 318 0 22 1224 7336
vector 9749  Network.dyn_peer[16]  lookupStabilitySig:vector  ETV
9749	460195 10408 82 134977 20.0000017 133.470622372887 318 -1.75 1 165.04166666418 126.69193672435
vector 9750  Network.dyn_peer[16]  lookupTimeSig:vector  ETV
9750	470603 9919 82 134977 20.0000017 133.470622372887 318 0 2.1 139.5 83.97
vector 9700  Network.dyn_peer[0]  lookupHopsSig:vector  ETV
9700	6441 8395 132 135599 20.1000001 133.989817489556 285 0 21 1294 9404
vector 9701  Network.dyn_peer[0]  lookupStabilitySig:vector  ETV
9701	14836 9369 132 135599 20.1000001 133.989817489556 285 -1.625 1 123.44444438815 108.59683636971
vector 9702  Network.dyn_peer[0]  lookupTimeSig:vector  ETV
9702	24205 8930 132 135599 20.1000001 133.989817489556 285 0 2.1 143.6 101.4
vector 9706  Network.dyn_peer[2]  lookupHopsSig:vector  ETV
9706	61581 8896 138 135165 20.1000003 133.619532926055 303 0 25 1234 8436
vector 9707  Network.dyn_peer[2]  lookupStabilitySig:vector  ETV
9707	70477 9917 138 135165 20.1000003 133.619532926055 303 -2.125 1 148.80555555224 126.39737653806
vector 9708  Network.dyn_peer[2]  lookupTimeSig:vector  ETV
9708	80394 9469 138 135165 20.1000003 133.619532926055 303 0 2.4 138.1 91.47
vector 9715  Network.dyn_peer[5]  lookupHopsSig:vector  ETV
9715	146924 9177 145 134389 20.1000006 132.796959697259 312 0 26 1295 9131
vector 9716  Network.dyn_peer[5]  lookupStabilitySig:vector  ETV
9716	156101 10184 145 134389 20.1000006 132.796959697259 312 -2.25 1 150.125 130.921875
vector 9717  Network.dyn_peer[5]  lookupTimeSig:vector  ETV
9717	166285 9758 145 134389 20.1000006 132.796959697259 312 0 2.4 145.4 97.48
vector 9718  Network.dyn_peer[6]  lookupHopsSig:vector  ETV
9718	176043 8319 150 135782 20.1000007 134.201180382778 283 0 17 1167 7307
vector 9719  Network.dyn_peer[6]  lookupStabilitySig:vector  ETV
9719	184362 9232 150 135782 20.1000007 134.201180382778 283 -1.125 1 137.125 105.421875
vector 9720  Network.dyn_peer[6]  lookupTimeSig:vector  ETV
9720	193594 8853 150 135782 20.1000007 134.201180382778 283 0 1.5 130.3 79.25
vector 9721  Network.dyn_peer[7]  lookupHopsSig:vector  ETV
9721	202447 8585 155 135002 20.1000008 133.476793578668 292 0 20 1242 7946
vector 9722  Network.dyn_peer[7]  lookupStabilitySig:vector  ETV
9722	211032 9572 155 135002 20.1000008 133.476793578668 292 -1.5 1 136.94444441795 105.82870367942
vector 9723  Network.dyn_peer[7]  lookupTimeSig:vector  ETV
9723	220604 9132 155 135002 20.1000008 133.476793578668 292 0 1.8 138.8 87.54
vector 9724  Network.dyn_peer[8]  lookupHopsSig:vector  ETV
9724	229736 9068 160 134825 20.1000009 133.278675101431 308 0 16 1258 7746
vector 9725  Network.dyn_peer[8]  lookupStabilitySig:vector  ETV
9725	238804 10065 160 134825 20.1000009 133.278675101431 308 -1 1 150.88888888061 114.69097221229
vector 9726  Network.dyn_peer[8]  lookupTimeSig:vector  ETV
9726	248869 9646 160 134825 20.1000009 133.278675101431 308 0 1.5 141.3 87.11
vector 9730  Network.dyn_peer[10]  lookupHopsSig:vector  ETV
9730	284106 8131 166 134660 20.1000011 133.112861752173 277 0 21 1234 8646
vector 9731  Network.dyn_peer[10]  lookupStabilitySig:vector  ETV
9731	292237 9053 166 134660 20.1000011 133.112861752173 277 -1.625 1 122.80555555224 103.65239197163
vector 9732  Network.dyn_peer[10]  lookupTimeSig:vector  ETV
9732	301290 8650 166 134660 20.1000011 133.112861752173 277 0 1.8 135.7 90.75
vector 9754  Network.dyn_peer[18]  lookupHopsSig:vector  ETV
9754	509135 8829 178 134520 20.1000019 132.968870021565 301 0 17 1155 6923
vector 9755  Network.dyn_peer[18]  lookupStabilitySig:vector  ETV
9755	517964 9817 178 134520 20.1000019 132.968870021565 301 -1.125 1 156.65277777612 120.46431326903
vector 9756  Network.dyn_peer[18]  lookupTimeSig:vector  ETV
9756	527781 9392 178 134520 20.1000019 132.968870021565 301 0 1.4 128.8 74.46
vector 9769  Network.dyn_peer[23]  lookupHopsSig:vector  ETV
9769	651131 8717 187 135250 20.1000024 133.684013471038 297 0 23 1268 8772
vector 9770  Network.dyn_peer[23]  lookupStabilitySig:vector  ETV
9770	659848 9675 187 135250 20.1000024 133.684013471038 297 -1.875 1 138.55555555224 117.12114197163
vector 9771  Network.dyn_peer[23]  lookupTimeSig:vector  ETV
9771	669523 9274 187 135250 20.1000024 133.684013471038 297 0 2.2 141.1 95.81
vector 9778  Network.dyn_peer[26]  lookupHopsSig:vector  ETV
9778	732242 8133 194 135669 20.1000027 134.084113471038 276 0 22 1206 8318
vector 9779  Network.dyn_peer[26]  lookupStabilitySig:vector  ETV
9779	740375 9013 194 135669 20.1000027 134.084113471038 276 -1.75 1 125.26388888806 104.49324845532
vector 9780  Network.dyn_peer[26]  lookupTimeSig:vector  ETV
9780	749388 8634 194 135669 20.1000027 134.084113471038 276 0 1.8 132.9 87.07
vector 9709  Network.dyn_peer[3]  lookupHopsSig:vector  ETV
9709	89863 8718 208 135406 20.2000004 133.820911979677 296 0 22 1237 8239
vector 9710  Network.dyn_peer[3]  lookupStabilitySig:vector  ETV
9710	98581 9724 208 135406 20.2000004 133.820911979677 296 -1.75 1 141.40277777612 115.52681326903
vector 9711  Network.dyn_peer[3]  lookupTimeSig:vector  ETV
9711	108305 9272 208 135406 20.2000004 133.820911979677 296 0 1.9 137.2 88.34
vector 9733  Network.dyn_peer[11]  lookupHopsSig:vector  ETV
9733	309940 9148 220 135575 20.2000012 133.979920268237 311 0 26 1200 7152
vector 9734  Network.dyn_peer[11]  lookupStabilitySig:vector  ETV
9734	319088 10154 220 135575 20.2000012 133.979920268237 311 -2.25 1 161 122.75
vector 9735  Network.dyn_peer[11]  lookupTimeSig:vector  ETV
9735	329242 9754 220 135575 20.2000012 133.979920268237 311 0 2.5 134.4 78.16
vector 9745  Network.dyn_peer[15]  lookupHopsSig:vector  ETV
9745	422639 8899 229 135753 20.2000016 134.1802848154 303 0 20 1342 9530
vector 9746  Network.dyn_peer[15]  lookupStabilitySig:vector  ETV
9746	431538 9879 229 135753 20.2000016 134.1802848154 303 -1.5 1 135.25 116.40625
vector 9747  Network.dyn_peer[15]  lookupTimeSig:vector  ETV
9747	441417 9466 229 135753 20.2000016 134.1802848154 303 0 1.9 147.4 101.3
vector 9751  Network.dyn_peer[17]  lookupHopsSig:vector  ETV
9751	480522 9025 235 134088 20.2000018 132.468729858469 307 0 14 1275 8173
vector 9752  Network.dyn_peer[17]  lookupStabilitySig:vector  ETV
9752	489547 10004 235 134088 20.2000018 132.468729858469 307 -0.75 1 147.66666665673 116.0069444312
vector 9753  Network.dyn_peer[17]  lookupTimeSig:vector  ETV
9753	499551 9584 235 134088 20.2000018 132.468729858469 307 0 1.3 142.2 89.68
vector 9757  Network.dyn_peer[19]  lookupHopsSig:vector  ETV
9757	537173 8448 241 134469 20.200002 132.883749900743 288 0 17 1175 7341
vector 9758  Network.dyn_peer[19]  lookupStabilitySig:vector  ETV
9758	545621 9441 241 134469 20.200002 132.883749900743 288 -1.125 1 141.44444437325 109.20177463212
vector 9759  Network.dyn_peer[19]  lookupTimeSig:vector  ETV
9759	555062 8992 241 134469 20.200002 132.883749900743 288 0 1.7 132 79.92
vector 9760  Network.dyn_peer[20]  lookupHopsSig:vector  ETV
9760	564054 9469 246 135326 20.2000021 133.771588031961 321 0 21 1419 10187
vector 9761  Network.dyn_peer[20]  lookupStabilitySig:vector  ETV
9761	573523 10505 246 135326 20.2000021 133.771588031961 321 -1.625 1 143.625 125.421875
vector 9762  Network.dyn_peer[20]  lookupTimeSig:vector  ETV
9762	584028 10066 246 135326 20.2000021 133.771588031961 321 0 2 157.1 108.13
vector 9763  Network.dyn_peer[21]  lookupHopsSig:vector  ETV
9763	594094 9484 251 135816 20.2000022 134.278307274467 322 0 19 1330 8742
vector 9764  Network.dyn_peer[21]  lookupStabilitySig:vector  ETV
9764	603578 10553 251 135816 20.2000022 134.278307274467 322 -1.375 1 155.91666662693 126.26311724348
vector 9765  Network.dyn_peer[21]  lookupTimeSig:vector  ETV
9765	614131 10089 251 135816 20.2000022 134.278307274467 322 0 1.7 147.7 93.35
vector 9781  Network.dyn_peer[27]  lookupHopsSig:vector  ETV
9781	758022 8585 260 135404 20.2000028 133.819774720132 291 0 19 1202 8104
vector 9782  Network.dyn_peer[27]  lookupStabilitySig:vector  ETV
9782	766607 9564 260 135404 20.2000028 133.819774720132 291 -1.375 1 140.84722220898 117.15875771016
vector 9783  Network.dyn_peer[27]  lookupTimeSig:vector  ETV
9783	776171 9131 260 135404 20.2000028 133.819774720132 291 0 1.7 134.6 86.66
vector 9784  Network.dyn_peer[28]  lookupHopsSig:vector  ETV
9784	785302 8876 265 134261 20.2000029 132.672953943457 301 0 18 1330 9096
vector 9785  Network.dyn_peer[28]  lookupStabilitySig:vector  ETV
9785	794178 9848 265 134261 20.2000029 132.672953943457 301 -1.25 1 134.80555555224 110.68364197163
vector 9786  Network.dyn_peer[28]  lookupTimeSig:vector  ETV
9786	804026 9439 265 134261 20.2000029 132.672953943457 301 0 1.6 145.8 95.14
vector 9787  Network.dyn_peer[29]  lookupHopsSig:vector  ETV
9787	813465 8376 270 135193 20.200003 133.668633665019 285 0 21 1204 8322
vector 9788  Network.dyn_peer[29]  lookupStabilitySig:vector  ETV
9788	821841 9306 270 135193 20.200003 133.668633665019 285 -1.625 1 134.68055555224 114.07426697163
vector 9789  Network.dyn_peer[29]  lookupTimeSig:vector  ETV
9789	831147 8904 270 135193 20.200003 133.668633665019 285 0 1.7 134.1 88.25
vector 9793  Network.dyn_peer[31]  lookupHopsSig:vector  ETV
9793	866687 9825 276 135839 20.2000032 134.289987084349 333 0 18 1372 8862
vector 9794  Network.dyn_peer[31]  lookupStabilitySig:vector  ETV
9794	876512 10869 276 135839 20.2000032 134.289987084349 333 -1.25 1 161.5 128.46875
vector 9795  Network.dyn_peer[31]  lookupTimeSig:vector  ETV
9795	887381 10441 276 135839 20.2000032 134.289987084349 333 0 1.5 154.7 95.79
vector 9703  Network.dyn_peer[1]  lookupHopsSig:vector  ETV
9703	33135 8963 290 135956 20.3000002 135.102931813353 303 0 17 1272 8324
vector 9704  Network.dyn_peer[1]  lookupStabilitySig:vector  ETV
9704	42098 9976 290 135956 20.3000002 135.102931813353 303 -1.125 1 144.3194444105 115.15374226335
vector 9705  Network.dyn_peer[1]  lookupTimeSig:vector  ETV
9705	52074 9507 290 135956 20.3000002 135.102931813353 303 0 1.6 141.6 89.78
vector 9739  Network.dyn_peer[13]  lookupHopsSig:vector  ETV
9739	367675 8513 305 134613 20.3000014 133.085886689866 291 0 13 1179 7245
vector 9740  Network.dyn_peer[13]  lookupStabilitySig:vector  ETV
9740	376188 9446 305 134613 20.3000014 133.085886689866 291 -0.625 1 143.65277777612 109.49556326903
vector 9741  Network.dyn_peer[13]  lookupTimeSig:vector  ETV
9741	385634 9061 305 134613 20.3000014 133.085886689866 291 0 1.3 131.7 80.67
vector 9775  Network.dyn_peer[25]  lookupHopsSig:vector  ETV
9775	706112 8237 319 135294 20.3000026 133.706222617671 280 0 21 1176 7964
vector 9776  Network.dyn_peer[25]  lookupStabilitySig:vector  ETV
9776	714349 9142 319 135294 20.3000026 133.706222617671 280 -1.625 1 133.01388888806 110.46199845532
vector 9777  Network.dyn_peer[25]  lookupTimeSig:vector  ETV
9777	723491 8751 319 135294 20.3000026 133.706222617671 280 0 1.9 130.5 84.73
vector 9790  Network.dyn_peer[30]  lookupHopsSig:vector  ETV
9790	840051 8382 328 135248 20.3000031 133.683294815157 285 0 19 1237 7997
vector 9791  Network.dyn_peer[30]  lookupStabilitySig:vector  ETV
9791	848433 9339 328 135248 20.3000031 133.683294815157 285 -1.375 1 130.43055555224 100.76176697163
vector 9792  Network.dyn_peer[30]  lookupTimeSig:vector  ETV
9792	857772 8915 328 135248 20.3000031 133.683294815157 285 0.1 1.7 136.8 85.6
vector 9766  Network.dyn_peer[22]  lookupHopsSig:vector  ETV
9766	624220 8483 366 135442 20.4000023 133.867784793132 288 0 17 1210 7824
vector 9767  Network.dyn_peer[22]  lookupStabilitySig:vector  ETV
9767	632703 9412 366 135442 20.4000023 133.867784793132 288 -1.125 1 136.91666665673 107.7881944312
vector 9768  Network.dyn_peer[22]  lookupTimeSig:vector  ETV
9768	642115 9016 366 135442 20.4000023 133.867784793132 288 0 1.5 134.3 84.21
vector 9772  Network.dyn_peer[24]  lookupHopsSig:vector  ETV
9772	678797 8598 371 134827 20.4000025 133.278939857506 293 0 29 1210 8870
vector 9773  Network.dyn_peer[24]  lookupStabilitySig:vector  ETV
9773	687395 9559 371 134827 20.4000025 133.278939857506 293 -2.625 1 141.75 129.09375
vector 9774  Network.dyn_peer[24]  lookupTimeSig:vector  ETV
9774	696954 9158 371 134827 20.4000025 133.278939857506 293 0.1 2.6 133.9 90.93
vector 9712  Network.dyn_peer[4]  lookupHopsSig:vector  ETV
9712	117577 9226 408 134673 20.5000005 133.156710357876 315 0 16 1209 7179
vector 9713  Network.dyn_peer[4]  lookupStabilitySig:vector  ETV
9713	126803 10288 408 134673 20.5000005 133.156710357876 315 -1 1 164.02777775377 125.03395059668
vector 9714  Network.dyn_peer[4]  lookupTimeSig:vector  ETV
9714	137091 9833 408 134673 20.5000005 133.156710357876 315 0 1.5 137.2 80.48
vector 9727  Network.dyn_peer[9]  lookupHopsSig:vector  ETV
9727	258515 8042 454 135077 20.600001 133.571543788351 274 0 23 1249 8967
vector 9728  Network.dyn_peer[9]  lookupStabilitySig:vector  ETV
9728	266557 9000 454 135077 20.600001 133.571543788351 274 -1.875 1 117.95833332092 101.98013115555
vector 9729  Network.dyn_peer[9]  lookupTimeSig:vector  ETV
9729	275557 8549 454 135077 20.600001 133.571543788351 274 0 1.9 137.2 95.5
vector 9742  Network.dyn_peer[14]  lookupHopsSig:vector  ETV
9742	394695 8793 461 134806 20.6000015 133.27604738316 299 0 23 1212 7970
vector 9743  Network.dyn_peer[14]  lookupStabilitySig:vector  ETV
9743	403488 9806 461 134806 20.6000015 133.27604738316 299 -1.875 1 147.84722217917 120.65181323923
vector 9744  Network.dyn_peer[14]  lookupTimeSig:vector  ETV
9744	413294 9345 461 134806 20.6000015 133.27604738316 299 0 2.1 134.6 84.58
