file 799278 1369933137                                          
version 2
run Stability-21-20130528-00:51:31-21385
attr configname Stability
attr datetime 20130528-00:51:31
attr experiment Stability
attr inifile omnetpp.ini
attr iterationvars $0=1e4
attr iterationvars2 "$0=1e4, $repetition=1"
attr measurement $0=1e4
attr network Network
attr processid 21385
attr repetition 1
attr replication #1
attr resultdir results
attr runnumber 21
attr seedset 21
vector 2133  Network.churner  inGoingSizeSig:vector  ETV
2133	697937 101341 21 66559 20 20500.815305371128 4097 0 0 0 0
vector 2037  Network.dyn_peer[0]  lookupHopsSig:vector  ETV
2037	6435 6788 29 65543 30.1 20190.741748945068 256 0 2 327 487
vector 2038  Network.dyn_peer[0]  lookupStabilitySig:vector  ETV
2038	13223 7696 29 65543 30.1 20190.741748945068 256 0.75 1 215.125 181.859375
vector 2039  Network.dyn_peer[0]  lookupTimeSig:vector  ETV
2039	20919 7282 29 65543 30.1 20190.741748945068 256 0 0.3 51.9 11.73
vector 2040  Network.dyn_peer[1]  lookupHopsSig:vector  ETV
2040	28201 6752 61 65573 40.1 20200.911548456397 256 0 2 329 493
vector 2041  Network.dyn_peer[1]  lookupStabilitySig:vector  ETV
2041	34953 7658 61 65573 40.1 20200.911548456397 256 0.75 1 214.875 181.453125
vector 2042  Network.dyn_peer[1]  lookupTimeSig:vector  ETV
2042	42611 7246 61 65573 40.1 20200.911548456397 256 0 0.3 52.1 11.95
vector 2043  Network.dyn_peer[2]  lookupHopsSig:vector  ETV
2043	49857 6741 96 65605 50.2 20210.824197032018 256 0 2 327 489
vector 2044  Network.dyn_peer[2]  lookupStabilitySig:vector  ETV
2044	56598 7644 96 65605 50.2 20210.824197032018 256 0.75 1 215.125 181.890625
vector 2045  Network.dyn_peer[2]  lookupTimeSig:vector  ETV
2045	64242 7233 96 65605 50.2 20210.824197032018 256 0 0.3 51.9 11.75
vector 2046  Network.dyn_peer[3]  lookupHopsSig:vector  ETV
2046	71475 6705 127 65641 60.2 20220.862691305338 256 0 3 362 618
vector 2047  Network.dyn_peer[3]  lookupStabilitySig:vector  ETV
2047	78180 7590 127 65641 60.2 20220.862691305338 256 0.625 1 210.75 175.15625
vector 2048  Network.dyn_peer[3]  lookupTimeSig:vector  ETV
2048	85770 7195 127 65641 60.2 20220.862691305338 256 0 0.4 55.4 13.44
vector 2049  Network.dyn_peer[4]  lookupHopsSig:vector  ETV
2049	92965 6705 173 65673 70.2 20230.815503823622 256 0 3 339 517
vector 2050  Network.dyn_peer[4]  lookupStabilitySig:vector  ETV
2050	99670 7630 173 65673 70.2 20230.815503823622 256 0.625 1 213.625 179.328125
vector 2051  Network.dyn_peer[4]  lookupTimeSig:vector  ETV
2051	107300 7209 173 65673 70.2 20230.815503823622 256 0 0.4 53.1 12.11
vector 2052  Network.dyn_peer[5]  lookupHopsSig:vector  ETV
2052	114509 6748 209 65703 80.2 20240.908041468387 256 0 3 341 525
vector 2053  Network.dyn_peer[5]  lookupStabilitySig:vector  ETV
2053	121257 7659 209 65703 80.2 20240.908041468387 256 0.625 1 213.375 178.953125
vector 2054  Network.dyn_peer[5]  lookupTimeSig:vector  ETV
2054	128916 7248 209 65703 80.2 20240.908041468387 256 0 0.4 53.3 12.27
vector 2055  Network.dyn_peer[6]  lookupHopsSig:vector  ETV
2055	136164 6707 240 65733 90.2 20250.819424262454 256 0 3 345 545
vector 2056  Network.dyn_peer[6]  lookupStabilitySig:vector  ETV
2056	142871 7601 240 65733 90.2 20250.819424262454 256 0.625 1 212.875 178.265625
vector 2057  Network.dyn_peer[6]  lookupTimeSig:vector  ETV
2057	150472 7201 240 65733 90.2 20250.819424262454 256 0 0.4 53.7 12.65
vector 2058  Network.dyn_peer[7]  lookupHopsSig:vector  ETV
2058	157673 6738 269 65763 100.1 20260.818929607407 256 0 3 333 513
vector 2059  Network.dyn_peer[7]  lookupStabilitySig:vector  ETV
2059	164411 7641 269 65763 100.1 20260.818929607407 256 0.625 1 214.375 180.765625
vector 2060  Network.dyn_peer[7]  lookupTimeSig:vector  ETV
2060	172052 7230 269 65763 100.1 20260.818929607407 256 0 0.4 52.5 12.15
vector 2061  Network.dyn_peer[8]  lookupHopsSig:vector  ETV
2061	179282 6692 314 65794 110.2 20270.915683645053 256 0 2 334 502
vector 2062  Network.dyn_peer[8]  lookupStabilitySig:vector  ETV
2062	185974 7608 314 65794 110.2 20270.915683645053 256 0.75 1 214.25 180.34375
vector 2063  Network.dyn_peer[8]  lookupTimeSig:vector  ETV
2063	193582 7192 314 65794 110.2 20270.915683645053 256 0 0.3 52.6 11.9
vector 2064  Network.dyn_peer[9]  lookupHopsSig:vector  ETV
2064	200774 6782 346 65825 120.2 20280.722381063376 256 0 3 337 523
vector 2065  Network.dyn_peer[9]  lookupStabilitySig:vector  ETV
2065	207556 7686 346 65825 120.2 20280.722381063376 256 0.625 1 213.875 179.921875
vector 2066  Network.dyn_peer[9]  lookupTimeSig:vector  ETV
2066	215242 7276 346 65825 120.2 20280.722381063376 256 0 0.4 52.9 12.27
vector 2067  Network.dyn_peer[10]  lookupHopsSig:vector  ETV
2067	222518 6755 375 65856 130.1 20290.737677167053 256 0 3 347 571
vector 2068  Network.dyn_peer[10]  lookupStabilitySig:vector  ETV
2068	229273 7660 375 65856 130.1 20290.737677167053 256 0.625 1 212.625 178.171875
vector 2069  Network.dyn_peer[10]  lookupTimeSig:vector  ETV
2069	236933 7247 375 65856 130.1 20290.737677167053 256 0 0.4 53.9 12.69
vector 2070  Network.dyn_peer[11]  lookupHopsSig:vector  ETV
2070	244180 6772 405 65889 140.1 20300.842157842364 256 0 3 365 627
vector 2071  Network.dyn_peer[11]  lookupStabilitySig:vector  ETV
2071	250952 7682 405 65889 140.1 20300.842157842364 256 0.625 1 210.375 174.546875
vector 2072  Network.dyn_peer[11]  lookupTimeSig:vector  ETV
2072	258634 7270 405 65889 140.1 20300.842157842364 256 0 0.4 55.7 13.29
vector 2073  Network.dyn_peer[12]  lookupHopsSig:vector  ETV
2073	265904 6750 440 65918 150.2 20310.719101820649 256 0 3 351 561
vector 2074  Network.dyn_peer[12]  lookupStabilitySig:vector  ETV
2074	272654 7643 440 65918 150.2 20310.719101820649 256 0.625 1 212.125 177.015625
vector 2075  Network.dyn_peer[12]  lookupTimeSig:vector  ETV
2075	280297 7246 440 65918 150.2 20310.719101820649 256 0 0.4 54.3 12.73
vector 2076  Network.dyn_peer[13]  lookupHopsSig:vector  ETV
2076	287543 6702 469 65954 160 20320.851572891263 256 0 3 321 485
vector 2077  Network.dyn_peer[13]  lookupStabilitySig:vector  ETV
2077	294245 7611 469 65954 160 20320.851572891263 256 0.625 1 215.875 183.328125
vector 2078  Network.dyn_peer[13]  lookupTimeSig:vector  ETV
2078	301856 7190 469 65954 160 20320.851572891263 256 0 0.4 51.3 11.77
vector 2079  Network.dyn_peer[14]  lookupHopsSig:vector  ETV
2079	309046 6733 500 65986 170.2 20330.929506431208 256 0 3 337 515
vector 2080  Network.dyn_peer[14]  lookupStabilitySig:vector  ETV
2080	315779 7650 500 65986 170.2 20330.929506431208 256 0.625 1 213.875 179.796875
vector 2081  Network.dyn_peer[14]  lookupTimeSig:vector  ETV
2081	323429 7233 500 65986 170.2 20330.929506431208 256 0 0.4 52.9 12.07
vector 2082  Network.dyn_peer[15]  lookupHopsSig:vector  ETV
2082	330662 6804 542 66015 180.1 20340.712749582229 256 0 3 325 487
vector 2083  Network.dyn_peer[15]  lookupStabilitySig:vector  ETV
2083	337466 7713 542 66015 180.1 20340.712749582229 256 0.625 1 215.375 182.359375
vector 2084  Network.dyn_peer[15]  lookupTimeSig:vector  ETV
2084	345179 7296 542 66015 180.1 20340.712749582229 256 0 0.4 51.7 11.75
vector 2085  Network.dyn_peer[16]  lookupHopsSig:vector  ETV
2085	352475 6768 571 66052 190 20350.941730094049 256 0 2 321 479
vector 2086  Network.dyn_peer[16]  lookupStabilitySig:vector  ETV
2086	359243 7657 571 66052 190 20350.941730094049 256 0.75 1 215.875 183.234375
vector 2087  Network.dyn_peer[16]  lookupTimeSig:vector  ETV
2087	366900 7252 571 66052 190 20350.941730094049 256 0 0.3 51.3 11.69
vector 2088  Network.dyn_peer[17]  lookupHopsSig:vector  ETV
2088	374152 6737 608 66084 200 20360.819256110485 256 0 2 338 508
vector 2089  Network.dyn_peer[17]  lookupStabilitySig:vector  ETV
2089	380889 7664 608 66084 200 20360.819256110485 256 0.75 1 213.75 179.4375
vector 2090  Network.dyn_peer[17]  lookupTimeSig:vector  ETV
2090	388553 7243 608 66084 200 20360.819256110485 256 0 0.3 53 12.06
vector 2091  Network.dyn_peer[18]  lookupHopsSig:vector  ETV
2091	395796 6752 644 66115 210.1 20370.821455707453 256 0 3 316 460
vector 2092  Network.dyn_peer[18]  lookupStabilitySig:vector  ETV
2092	402548 7663 644 66115 210.1 20370.821455707453 256 0.625 1 216.5 184.1875
vector 2093  Network.dyn_peer[18]  lookupTimeSig:vector  ETV
2093	410211 7242 644 66115 210.1 20370.821455707453 256 0 0.4 50.8 11.44
vector 2094  Network.dyn_peer[19]  lookupHopsSig:vector  ETV
2094	417453 6735 673 66146 220.2 20380.908416485249 256 0 3 328 496
vector 2095  Network.dyn_peer[19]  lookupStabilitySig:vector  ETV
2095	424188 7634 673 66146 220.2 20380.908416485249 256 0.625 1 215 181.75
vector 2096  Network.dyn_peer[19]  lookupTimeSig:vector  ETV
2096	431822 7225 673 66146 220.2 20380.908416485249 256 0 0.4 52 11.98
vector 2097  Network.dyn_peer[20]  lookupHopsSig:vector  ETV
2097	439047 6674 711 66179 230.1 20391.013243794968 256 0 3 349 565
vector 2098  Network.dyn_peer[20]  lookupStabilitySig:vector  ETV
2098	445721 7579 711 66179 230.1 20391.013243794968 256 0.625 1 212.375 177.578125
vector 2099  Network.dyn_peer[20]  lookupTimeSig:vector  ETV
2099	453300 7170 711 66179 230.1 20391.013243794968 256 0 0.4 54.1 12.81
vector 2100  Network.dyn_peer[21]  lookupHopsSig:vector  ETV
2100	460470 6755 744 66212 240.2 20400.92786200839 256 0 3 345 537
vector 2101  Network.dyn_peer[21]  lookupStabilitySig:vector  ETV
2101	467225 7669 744 66212 240.2 20400.92786200839 256 0.625 1 212.875 178.140625
vector 2102  Network.dyn_peer[21]  lookupTimeSig:vector  ETV
2102	474894 7257 744 66212 240.2 20400.92786200839 256 0 0.4 53.7 12.39
vector 2103  Network.dyn_peer[22]  lookupHopsSig:vector  ETV
2103	482151 6729 773 66245 250.1 20410.825413729179 256 0 3 328 488
vector 2104  Network.dyn_peer[22]  lookupStabilitySig:vector  ETV
2104	488880 7648 773 66245 250.1 20410.825413729179 256 0.625 1 215 181.625
vector 2105  Network.dyn_peer[22]  lookupTimeSig:vector  ETV
2105	496528 7227 773 66245 250.1 20410.825413729179 256 0 0.4 52 11.72
vector 2106  Network.dyn_peer[23]  lookupHopsSig:vector  ETV
2106	503755 6720 813 66279 260 20420.938160223099 256 0 3 348 554
vector 2107  Network.dyn_peer[23]  lookupStabilitySig:vector  ETV
2107	510475 7618 813 66279 260 20420.938160223099 256 0.625 1 212.5 177.65625
vector 2108  Network.dyn_peer[23]  lookupTimeSig:vector  ETV
2108	518093 7216 813 66279 260 20420.938160223099 256 0 0.4 54 12.88
vector 2109  Network.dyn_peer[24]  lookupHopsSig:vector  ETV
2109	525309 6724 844 66309 270.1 20430.9151537827 256 0 3 334 502
vector 2110  Network.dyn_peer[24]  lookupStabilitySig:vector  ETV
2110	532033 7647 844 66309 270.1 20430.9151537827 256 0.625 1 214.25 180.34375
vector 2111  Network.dyn_peer[24]  lookupTimeSig:vector  ETV
2111	539680 7226 844 66309 270.1 20430.9151537827 256 0 0.4 52.6 11.92
vector 2112  Network.dyn_peer[25]  lookupHopsSig:vector  ETV
2112	546906 6747 875 66357 280.1 20440.904251648976 256 0 3 358 598
vector 2113  Network.dyn_peer[25]  lookupStabilitySig:vector  ETV
2113	553653 7656 875 66357 280.1 20440.904251648976 256 0.625 1 211.25 175.84375
vector 2114  Network.dyn_peer[25]  lookupTimeSig:vector  ETV
2114	561309 7245 875 66357 280.1 20440.904251648976 256 0 0.4 55 13.12
vector 2115  Network.dyn_peer[26]  lookupHopsSig:vector  ETV
2115	568554 6692 906 66389 290.1 20450.925269909311 256 0 3 334 534
vector 2116  Network.dyn_peer[26]  lookupStabilitySig:vector  ETV
2116	575246 7584 906 66389 290.1 20450.925269909311 256 0.625 1 214.25 180.84375
vector 2117  Network.dyn_peer[26]  lookupTimeSig:vector  ETV
2117	582830 7176 906 66389 290.1 20450.925269909311 256 0 0.4 52.6 12.24
vector 2118  Network.dyn_peer[27]  lookupHopsSig:vector  ETV
2118	590006 6702 942 66426 300 20460.749919712056 256 0 3 323 481
vector 2119  Network.dyn_peer[27]  lookupStabilitySig:vector  ETV
2119	596708 7606 942 66426 300 20460.749919712056 256 0.625 1 215.625 182.765625
vector 2120  Network.dyn_peer[27]  lookupTimeSig:vector  ETV
2120	604314 7192 942 66426 300 20460.749919712056 256 0 0.4 51.5 11.75
vector 2121  Network.dyn_peer[28]  lookupHopsSig:vector  ETV
2121	611506 6743 973 66456 310.1 20470.718122777415 256 0 3 353 577
vector 2122  Network.dyn_peer[28]  lookupStabilitySig:vector  ETV
2122	618249 7644 973 66456 310.1 20470.718122777415 256 0.625 1 211.875 176.765625
vector 2123  Network.dyn_peer[28]  lookupTimeSig:vector  ETV
2123	625893 7239 973 66456 310.1 20470.718122777415 256 0 0.4 54.5 12.91
vector 2124  Network.dyn_peer[29]  lookupHopsSig:vector  ETV
2124	633132 6745 1009 66490 320.1 20480.824547449858 256 0 2 346 542
vector 2125  Network.dyn_peer[29]  lookupStabilitySig:vector  ETV
2125	639877 7639 1009 66490 320.1 20480.824547449858 256 0.75 1 212.75 177.96875
vector 2126  Network.dyn_peer[29]  lookupTimeSig:vector  ETV
2126	647516 7241 1009 66490 320.1 20480.824547449858 256 0 0.3 53.8 12.66
vector 2127  Network.dyn_peer[30]  lookupHopsSig:vector  ETV
2127	654757 6734 1041 66528 330.2 20490.952815383318 256 0 3 343 537
vector 2128  Network.dyn_peer[30]  lookupStabilitySig:vector  ETV
2128	661491 7635 1041 66528 330.2 20490.952815383318 256 0.625 1 213.125 178.640625
vector 2129  Network.dyn_peer[30]  lookupTimeSig:vector  ETV
2129	669126 7230 1041 66528 330.2 20490.952815383318 256 0 0.4 53.5 12.53
vector 2130  Network.dyn_peer[31]  lookupHopsSig:vector  ETV
2130	676356 6722 1076 66557 340 20500.812527196081 256 0 3 344 532
vector 2131  Network.dyn_peer[31]  lookupStabilitySig:vector  ETV
2131	683078 7635 1076 66557 340 20500.812527196081 256 0.625 1 213 178.3125
vector 2132  Network.dyn_peer[31]  lookupTimeSig:vector  ETV
2132	690713 7224 1076 66557 340 20500.812527196081 256 0 0.4 53.6 12.36
