version 2
run Stability-8-20130528-00:50:48-21385
attr configname Stability
attr datetime 20130528-00:50:48
attr experiment Stability
attr inifile omnetpp.ini
attr iterationvars $0=1e6
attr iterationvars2 "$0=1e6, $repetition=8"
attr measurement $0=1e6
attr network Network
attr processid 21385
attr repetition 8
attr replication #8
attr resultdir results
attr runnumber 8
attr seedset 8

vector 872  Network.churner  inGoingSizeSig:vector  ETV
vector 776  Network.dyn_peer[0]  lookupHopsSig:vector  ETV
vector 777  Network.dyn_peer[0]  lookupStabilitySig:vector  ETV
vector 778  Network.dyn_peer[0]  lookupTimeSig:vector  ETV
vector 779  Network.dyn_peer[1]  lookupHopsSig:vector  ETV
vector 780  Network.dyn_peer[1]  lookupStabilitySig:vector  ETV
vector 781  Network.dyn_peer[1]  lookupTimeSig:vector  ETV
vector 782  Network.dyn_peer[2]  lookupHopsSig:vector  ETV
vector 783  Network.dyn_peer[2]  lookupStabilitySig:vector  ETV
vector 784  Network.dyn_peer[2]  lookupTimeSig:vector  ETV
vector 785  Network.dyn_peer[3]  lookupHopsSig:vector  ETV
vector 786  Network.dyn_peer[3]  lookupStabilitySig:vector  ETV
vector 787  Network.dyn_peer[3]  lookupTimeSig:vector  ETV
vector 788  Network.dyn_peer[4]  lookupHopsSig:vector  ETV
vector 789  Network.dyn_peer[4]  lookupStabilitySig:vector  ETV
vector 790  Network.dyn_peer[4]  lookupTimeSig:vector  ETV
vector 791  Network.dyn_peer[5]  lookupHopsSig:vector  ETV
vector 792  Network.dyn_peer[5]  lookupStabilitySig:vector  ETV
vector 793  Network.dyn_peer[5]  lookupTimeSig:vector  ETV
vector 794  Network.dyn_peer[6]  lookupHopsSig:vector  ETV
vector 795  Network.dyn_peer[6]  lookupStabilitySig:vector  ETV
vector 796  Network.dyn_peer[6]  lookupTimeSig:vector  ETV
vector 797  Network.dyn_peer[7]  lookupHopsSig:vector  ETV
vector 798  Network.dyn_peer[7]  lookupStabilitySig:vector  ETV
vector 799  Network.dyn_peer[7]  lookupTimeSig:vector  ETV
vector 800  Network.dyn_peer[8]  lookupHopsSig:vector  ETV
vector 801  Network.dyn_peer[8]  lookupStabilitySig:vector  ETV
vector 802  Network.dyn_peer[8]  lookupTimeSig:vector  ETV
vector 803  Network.dyn_peer[9]  lookupHopsSig:vector  ETV
vector 804  Network.dyn_peer[9]  lookupStabilitySig:vector  ETV
vector 805  Network.dyn_peer[9]  lookupTimeSig:vector  ETV
vector 806  Network.dyn_peer[10]  lookupHopsSig:vector  ETV
vector 807  Network.dyn_peer[10]  lookupStabilitySig:vector  ETV
vector 808  Network.dyn_peer[10]  lookupTimeSig:vector  ETV
vector 809  Network.dyn_peer[11]  lookupHopsSig:vector  ETV
vector 810  Network.dyn_peer[11]  lookupStabilitySig:vector  ETV
vector 811  Network.dyn_peer[11]  lookupTimeSig:vector  ETV
vector 812  Network.dyn_peer[12]  lookupHopsSig:vector  ETV
vector 813  Network.dyn_peer[12]  lookupStabilitySig:vector  ETV
vector 814  Network.dyn_peer[12]  lookupTimeSig:vector  ETV
vector 815  Network.dyn_peer[13]  lookupHopsSig:vector  ETV
vector 816  Network.dyn_peer[13]  lookupStabilitySig:vector  ETV
vector 817  Network.dyn_peer[13]  lookupTimeSig:vector  ETV
vector 818  Network.dyn_peer[14]  lookupHopsSig:vector  ETV
vector 819  Network.dyn_peer[14]  lookupStabilitySig:vector  ETV
vector 820  Network.dyn_peer[14]  lookupTimeSig:vector  ETV
vector 821  Network.dyn_peer[15]  lookupHopsSig:vector  ETV
vector 822  Network.dyn_peer[15]  lookupStabilitySig:vector  ETV
vector 823  Network.dyn_peer[15]  lookupTimeSig:vector  ETV
vector 824  Network.dyn_peer[16]  lookupHopsSig:vector  ETV
vector 825  Network.dyn_peer[16]  lookupStabilitySig:vector  ETV
vector 826  Network.dyn_peer[16]  lookupTimeSig:vector  ETV
vector 827  Network.dyn_peer[17]  lookupHopsSig:vector  ETV
vector 828  Network.dyn_peer[17]  lookupStabilitySig:vector  ETV
vector 829  Network.dyn_peer[17]  lookupTimeSig:vector  ETV
vector 830  Network.dyn_peer[18]  lookupHopsSig:vector  ETV
vector 831  Network.dyn_peer[18]  lookupStabilitySig:vector  ETV
vector 832  Network.dyn_peer[18]  lookupTimeSig:vector  ETV
vector 833  Network.dyn_peer[19]  lookupHopsSig:vector  ETV
vector 834  Network.dyn_peer[19]  lookupStabilitySig:vector  ETV
vector 835  Network.dyn_peer[19]  lookupTimeSig:vector  ETV
vector 836  Network.dyn_peer[20]  lookupHopsSig:vector  ETV
vector 837  Network.dyn_peer[20]  lookupStabilitySig:vector  ETV
vector 838  Network.dyn_peer[20]  lookupTimeSig:vector  ETV
vector 839  Network.dyn_peer[21]  lookupHopsSig:vector  ETV
vector 840  Network.dyn_peer[21]  lookupStabilitySig:vector  ETV
vector 841  Network.dyn_peer[21]  lookupTimeSig:vector  ETV
vector 842  Network.dyn_peer[22]  lookupHopsSig:vector  ETV
vector 843  Network.dyn_peer[22]  lookupStabilitySig:vector  ETV
vector 844  Network.dyn_peer[22]  lookupTimeSig:vector  ETV
vector 845  Network.dyn_peer[23]  lookupHopsSig:vector  ETV
vector 846  Network.dyn_peer[23]  lookupStabilitySig:vector  ETV
vector 847  Network.dyn_peer[23]  lookupTimeSig:vector  ETV
vector 848  Network.dyn_peer[24]  lookupHopsSig:vector  ETV
vector 849  Network.dyn_peer[24]  lookupStabilitySig:vector  ETV
vector 850  Network.dyn_peer[24]  lookupTimeSig:vector  ETV
vector 851  Network.dyn_peer[25]  lookupHopsSig:vector  ETV
vector 852  Network.dyn_peer[25]  lookupStabilitySig:vector  ETV
vector 853  Network.dyn_peer[25]  lookupTimeSig:vector  ETV
vector 854  Network.dyn_peer[26]  lookupHopsSig:vector  ETV
vector 855  Network.dyn_peer[26]  lookupStabilitySig:vector  ETV
vector 856  Network.dyn_peer[26]  lookupTimeSig:vector  ETV
vector 857  Network.dyn_peer[27]  lookupHopsSig:vector  ETV
vector 858  Network.dyn_peer[27]  lookupStabilitySig:vector  ETV
vector 859  Network.dyn_peer[27]  lookupTimeSig:vector  ETV
vector 860  Network.dyn_peer[28]  lookupHopsSig:vector  ETV
vector 861  Network.dyn_peer[28]  lookupStabilitySig:vector  ETV
vector 862  Network.dyn_peer[28]  lookupTimeSig:vector  ETV
vector 863  Network.dyn_peer[29]  lookupHopsSig:vector  ETV
vector 864  Network.dyn_peer[29]  lookupStabilitySig:vector  ETV
vector 865  Network.dyn_peer[29]  lookupTimeSig:vector  ETV
vector 866  Network.dyn_peer[30]  lookupHopsSig:vector  ETV
vector 867  Network.dyn_peer[30]  lookupStabilitySig:vector  ETV
vector 868  Network.dyn_peer[30]  lookupTimeSig:vector  ETV
vector 869  Network.dyn_peer[31]  lookupHopsSig:vector  ETV
vector 870  Network.dyn_peer[31]  lookupStabilitySig:vector  ETV
vector 871  Network.dyn_peer[31]  lookupTimeSig:vector  ETV
776	34	1020.3	3
776	39	1020.603454616116	2
776	44	1020.82003782322	1
776	49	1021.021542219801	1
776	1057	33020.2	2
776	1060	33020.4	1
776	1065	33020.701492909593	2
776	1076	33020.938931754043	1
776	2133	65020.2	2
776	2136	65020.4	1
776	2141	65020.701705179901	2
776	2147	65020.912839464958	1
776	3181	97020.1	1
776	3184	97020.3	1
776	3188	97020.509488889118	1
776	3192	97020.710131605637	1
776	4205	129020.1	1
776	4213	129020.424099524881	2
776	4218	129020.637416310014	1
776	4224	129020.951349156844	2
776	5203	161020.1	1
776	5207	161020.4	2
776	5212	161020.703819023664	2
776	5216	161020.907369255917	1
776	6207	193020.2	2
776	6211	193020.5	2
776	6216	193020.705405356196	1
776	6220	193020.910272920787	1
776	7241	225020.1	1
776	7244	225020.3	1
776	7249	225020.506494514168	1
776	7254	225020.813405040007	2
776	8283	257020.1	1
776	8287	257020.4	2
776	8293	257020.614501088471	1
776	8297	257020.814662728046	1
776	9301	289020.1	1
776	9304	289020.3	1
776	9308	289020.504026080614	1
776	9313	289020.811915274832	2
776	10332	321020.1	1
776	10335	321020.3	1
776	10343	321020.528986128789	1
776	10349	321020.745878919565	1
776	11411	353020.1	1
776	11414	353020.3	1
776	11418	353020.507548519105	1
776	11423	353020.722617072252	1
776	12435	385020.1	1
776	12438	385020.3	1
776	12442	385020.509974129595	1
776	12446	385020.714038420518	1
776	13481	417020.1	1
776	13484	417020.3	1
776	13488	417020.506849679709	1
776	13502	417020.774279443508	1
776	14518	449020.1	1
776	14521	449020.3	1
776	14526	449020.601058822222	2
776	14530	449020.802028929969	1
776	15533	481020.2	2
776	15537	481020.5	2
776	15542	481020.80535215306	2
776	15550	481021.125134556128	2
776	16592	513020.1	1
776	16596	513020.4	2
776	16600	513020.604734706573	1
776	16605	513020.807398789002	1
776	17616	545020.2	2
776	17620	545020.5	2
776	17625	545020.709922642564	1
776	17631	545020.933147727331	1
776	18627	577020.1	1
776	18630	577020.3	1
776	18634	577020.503304525383	1
776	18639	577020.716776852341	1
776	19656	609020.2	2
776	19660	609020.5	2
776	19666	609020.813975065911	2
776	19670	609021.014420433497	1
776	20678	641020.1	1
776	20681	641020.3	1
776	20687	641020.509635062111	1
776	20697	641020.746516523848	1
776	21737	673020.1	1
776	21741	673020.4	2
776	21745	673020.609143018044	1
776	21751	673020.911568647272	2
776	22786	705020.2	2
776	22790	705020.5	2
776	22796	705020.719136045866	1
776	22800	705020.927519047525	1
776	23794	737020.2	2
776	23798	737020.5	2
776	23802	737020.700189619273	1
776	23806	737020.90718043459	1
776	24794	769020.1	1
776	24797	769020.3	1
776	24802	769020.603645127366	2
776	24806	769020.807701063821	1
776	25830	801020.1	1
776	25834	801020.305261243619	1
776	25840	801020.518072280716	1
776	25846	801020.731607885555	1
776	26854	833020.2	2
776	26857	833020.4	1
776	26861	833020.609361574463	1
776	26869	833020.929051101415	2
776	27896	865020.1	1
776	27899	865020.3	1
776	27904	865020.604754392649	2
776	27908	865020.811717110744	1
776	28974	897020.2	2
776	28978	897020.5	2
776	28983	897020.7175288258	1
776	28988	897020.931348179391	1
776	29996	929020.2	2
776	30000	929020.40669873235	1
776	30004	929020.614662270878	1
776	30010	929020.82813219737	1
776	31038	961020.1	1
776	31041	961020.3	1
776	31046	961020.603718520055	2
776	31051	961020.812309854711	1
776	32063	993020.2	2
776	32068	993020.505995005911	2
776	32073	993020.814425017202	2
776	32089	993021.065416519739	1
776	33117	1025020.2	2
776	33122	1025020.500464492018	2
776	33129	1025020.802994743178	2
776	33135	1025021.023583203089	1
776	34166	1057020.1	1
776	34169	1057020.3	1
776	34174	1057020.51304328947	1
776	34178	1057020.716523733904	1
776	35214	1089020	0
776	35217	1089020.2	1
776	35222	1089020.506251457233	2
776	35228	1089020.819119141994	2
776	36249	1121020.1	1
776	36252	1121020.3	1
776	36256	1121020.50431928344	1
776	36266	1121020.753757803338	1
776	37273	1153020.1	1
776	37277	1153020.4	2
776	37282	1153020.705883940942	2
776	37286	1153020.915255050132	1
776	38297	1185020.1	1
776	38301	1185020.4	2
776	38305	1185020.609031330703	1
776	38309	1185020.811940668306	1
776	39349	1217020.2	2
776	39353	1217020.5	2
776	39358	1217020.716296150453	1
776	39369	1217021.048680421095	2
776	40396	1249020.1	1
776	40400	1249020.4	2
776	40404	1249020.606445016087	1
776	40408	1249020.8104453824	1
776	41438	1281020.3	3
776	41441	1281020.5	1
776	41447	1281020.71376703733	1
776	41453	1281020.928602006549	1
776	42518	1313020.1	1
776	42521	1313020.3	1
776	42527	1313020.613482201005	2
776	42533	1313020.82580841496	1
776	43570	1345020.2	2
776	43574	1345020.409002516502	1
776	43578	1345020.613686059181	1
776	43582	1345020.820628323499	1
776	44602	1377020.1	1
776	44605	1377020.3	1
776	44610	1377020.60823236077	2
776	44615	1377020.915558039212	2
776	45628	1409020	0
776	45631	1409020.2	1
776	45636	1409020.501277270142	2
776	45641	1409020.718189493347	1
776	46655	1441020.2	2
776	46659	1441020.5	2
776	46670	1441020.735427936085	1
776	46675	1441020.94263727818	1
776	47703	1473020	0
776	47707	1473020.3	2
776	47714	1473020.613932617387	2
776	47719	1473020.917382060586	2
776	48748	1505020.1	1
776	48751	1505020.3	1
776	48755	1505020.505437872216	1
776	48759	1505020.709786017806	1
776	49764	1537020	0
776	49767	1537020.2	1
776	49772	1537020.501786009706	2
776	49778	1537020.80781390705	2
776	50797	1569020.2	2
776	50800	1569020.4	1
776	50804	1569020.609540982414	1
776	50810	1569020.828342378344	1
776	51856	1601020.1	1
776	51861	1601020.5	3
776	51866	1601020.802172436884	2
776	51870	1601021.003158127723	1
776	52909	1633020.1	1
776	52913	1633020.303498806543	1
776	52927	1633020.552093174889	1
776	52931	1633020.761031308815	1
776	53972	1665020.1	1
776	53978	1665020.407024699798	2
776	53983	1665020.709021201864	2
776	53992	1665020.944923721168	1
776	55008	1697020.2	2
776	55012	1697020.5	2
776	55018	1697020.71011044689	1
776	55026	1697020.933118194314	1
776	56051	1729020.1	1
776	56057	1729020.319449474298	1
776	56064	1729020.547803252616	1
776	56073	1729020.773699074046	1
776	57082	1761020.1	1
776	57085	1761020.3	1
776	57091	1761020.51429520044	1
776	57096	1761020.821894317294	2
776	58099	1793020.3	3
776	58102	1793020.5	1
776	58106	1793020.704993164883	1
776	58111	1793020.921400338519	1
776	59127	1825020.1	1
776	59130	1825020.3	1
776	59134	1825020.503290191621	1
776	59140	1825020.81447454289	2
776	60183	1857020.1	1
776	60187	1857020.4	2
776	60196	1857020.638080978451	1
776	60202	1857020.849907384826	1
776	61214	1889020.2	2
776	61217	1889020.4	1
776	61221	1889020.601284601325	1
776	61227	1889020.821566143507	1
776	62293	1921020.1	1
776	62297	1921020.4	2
776	62306	1921020.639376684028	1
776	62310	1921020.841907434902	1
776	63319	1953020.1	1
776	63322	1953020.3	1
776	63337	1953020.742690757814	3
776	63341	1953020.943248628967	1
776	64335	1985020.3	3
776	64339	1985020.6	2
776	64343	1985020.801764213778	1
776	64350	1985021.025788267132	1
776	65383	2017020.1	1
776	65387	2017020.4	2
776	65391	2017020.605545369877	1
776	65395	2017020.808848651609	1
777	34	1020.3	0.625
777	39	1020.603454616116	0.75
777	44	1020.82003782322	0.875
777	49	1021.021542219801	0.875
777	1057	33020.2	0.75
777	1060	33020.4	0.875
777	1065	33020.701492909593	0.75
777	1076	33020.938931754043	0.875
777	2133	65020.2	0.75
777	2136	65020.4	0.875
777	2141	65020.701705179901	0.75
777	2147	65020.912839464958	0.875
777	3181	97020.1	0.875
777	3184	97020.3	0.875
777	3188	97020.509488889118	0.875
777	3192	97020.710131605637	0.875
777	4205	129020.1	0.875
777	4213	129020.424099524881	0.75
777	4218	129020.637416310014	0.875
777	4224	129020.951349156844	0.75
777	5203	161020.1	0.875
777	5207	161020.4	0.75
777	5212	161020.703819023664	0.75
777	5216	161020.907369255917	0.875
777	6207	193020.2	0.75
777	6211	193020.5	0.75
777	6216	193020.705405356196	0.875
777	6220	193020.910272920787	0.875
777	7241	225020.1	0.875
777	7244	225020.3	0.875
777	7249	225020.506494514168	0.875
777	7254	225020.813405040007	0.75
777	8283	257020.1	0.875
777	8287	257020.4	0.75
777	8293	257020.614501088471	0.875
777	8297	257020.814662728046	0.875
777	9301	289020.1	0.875
777	9304	289020.3	0.875
777	9308	289020.504026080614	0.875
777	9313	289020.811915274832	0.75
777	10332	321020.1	0.875
777	10335	321020.3	0.875
777	10343	321020.528986128789	0.875
777	10349	321020.745878919565	0.875
777	11411	353020.1	0.875
777	11414	353020.3	0.875
777	11418	353020.507548519105	0.875
777	11423	353020.722617072252	0.875
777	12435	385020.1	0.875
777	12438	385020.3	0.875
777	12442	385020.509974129595	0.875
777	12446	385020.714038420518	0.875
777	13481	417020.1	0.875
777	13484	417020.3	0.875
777	13488	417020.506849679709	0.875
777	13502	417020.774279443508	0.875
777	14518	449020.1	0.875
777	14521	449020.3	0.875
777	14526	449020.601058822222	0.75
777	14530	449020.802028929969	0.875
777	15533	481020.2	0.75
777	15537	481020.5	0.75
777	15542	481020.80535215306	0.75
777	15550	481021.125134556128	0.75
777	16592	513020.1	0.875
777	16596	513020.4	0.75
777	16600	513020.604734706573	0.875
777	16605	513020.807398789002	0.875
777	17616	545020.2	0.75
777	17620	545020.5	0.75
777	17625	545020.709922642564	0.875
777	17631	545020.933147727331	0.875
777	18627	577020.1	0.875
777	18630	577020.3	0.875
777	18634	577020.503304525383	0.875
777	18639	577020.716776852341	0.875
777	19656	609020.2	0.75
777	19660	609020.5	0.75
777	19666	609020.813975065911	0.75
777	19670	609021.014420433497	0.875
777	20678	641020.1	0.875
777	20681	641020.3	0.875
777	20687	641020.509635062111	0.875
777	20697	641020.746516523848	0.875
777	21737	673020.1	0.875
777	21741	673020.4	0.75
777	21745	673020.609143018044	0.875
777	21751	673020.911568647272	0.75
777	22786	705020.2	0.75
777	22790	705020.5	0.75
777	22796	705020.719136045866	0.875
777	22800	705020.927519047525	0.875
777	23794	737020.2	0.75
777	23798	737020.5	0.75
777	23802	737020.700189619273	0.875
777	23806	737020.90718043459	0.875
777	24794	769020.1	0.875
777	24797	769020.3	0.875
777	24802	769020.603645127366	0.75
777	24806	769020.807701063821	0.875
777	25830	801020.1	0.875
777	25834	801020.305261243619	0.875
777	25840	801020.518072280716	0.875
777	25846	801020.731607885555	0.875
777	26854	833020.2	0.75
777	26857	833020.4	0.875
777	26861	833020.609361574463	0.875
777	26869	833020.929051101415	0.75
777	27896	865020.1	0.875
777	27899	865020.3	0.875
777	27904	865020.604754392649	0.75
777	27908	865020.811717110744	0.875
777	28974	897020.2	0.75
777	28978	897020.5	0.75
777	28983	897020.7175288258	0.875
777	28988	897020.931348179391	0.875
777	29996	929020.2	0.75
777	30000	929020.40669873235	0.875
777	30004	929020.614662270878	0.875
777	30010	929020.82813219737	0.875
777	31038	961020.1	0.875
777	31041	961020.3	0.875
777	31046	961020.603718520055	0.75
777	31051	961020.812309854711	0.875
777	32063	993020.2	0.75
777	32068	993020.505995005911	0.75
777	32073	993020.814425017202	0.75
777	32089	993021.065416519739	0.875
777	33117	1025020.2	0.75
777	33122	1025020.500464492018	0.75
777	33129	1025020.802994743178	0.75
777	33135	1025021.023583203089	0.875
777	34166	1057020.1	0.875
777	34169	1057020.3	0.875
777	34174	1057020.51304328947	0.875
777	34178	1057020.716523733904	0.875
777	35214	1089020	1
777	35217	1089020.2	0.875
777	35222	1089020.506251457233	0.75
777	35228	1089020.819119141994	0.75
777	36249	1121020.1	0.875
777	36252	1121020.3	0.875
777	36256	1121020.50431928344	0.875
777	36266	1121020.753757803338	0.875
777	37273	1153020.1	0.875
777	37277	1153020.4	0.75
777	37282	1153020.705883940942	0.75
777	37286	1153020.915255050132	0.875
777	38297	1185020.1	0.875
777	38301	1185020.4	0.75
777	38305	1185020.609031330703	0.875
777	38309	1185020.811940668306	0.875
777	39349	1217020.2	0.75
777	39353	1217020.5	0.75
777	39358	1217020.716296150453	0.875
777	39369	1217021.048680421095	0.75
777	40396	1249020.1	0.875
777	40400	1249020.4	0.75
777	40404	1249020.606445016087	0.875
777	40408	1249020.8104453824	0.875
777	41438	1281020.3	0.625
777	41441	1281020.5	0.875
777	41447	1281020.71376703733	0.875
777	41453	1281020.928602006549	0.875
777	42518	1313020.1	0.875
777	42521	1313020.3	0.875
777	42527	1313020.613482201005	0.75
777	42533	1313020.82580841496	0.875
777	43570	1345020.2	0.75
777	43574	1345020.409002516502	0.875
777	43578	1345020.613686059181	0.875
777	43582	1345020.820628323499	0.875
777	44602	1377020.1	0.875
777	44605	1377020.3	0.875
777	44610	1377020.60823236077	0.75
777	44615	1377020.915558039212	0.75
777	45628	1409020	1
777	45631	1409020.2	0.875
777	45636	1409020.501277270142	0.75
777	45641	1409020.718189493347	0.875
777	46655	1441020.2	0.75
777	46659	1441020.5	0.75
777	46670	1441020.735427936085	0.875
777	46675	1441020.94263727818	0.875
777	47703	1473020	1
777	47707	1473020.3	0.75
777	47714	1473020.613932617387	0.75
777	47719	1473020.917382060586	0.75
777	48748	1505020.1	0.875
777	48751	1505020.3	0.875
777	48755	1505020.505437872216	0.875
777	48759	1505020.709786017806	0.875
777	49764	1537020	1
777	49767	1537020.2	0.875
777	49772	1537020.501786009706	0.75
777	49778	1537020.80781390705	0.75
777	50797	1569020.2	0.75
777	50800	1569020.4	0.875
777	50804	1569020.609540982414	0.875
777	50810	1569020.828342378344	0.875
777	51856	1601020.1	0.875
777	51861	1601020.5	0.625
777	51866	1601020.802172436884	0.75
777	51870	1601021.003158127723	0.875
777	52909	1633020.1	0.875
777	52913	1633020.303498806543	0.875
777	52927	1633020.552093174889	0.875
777	52931	1633020.761031308815	0.875
777	53972	1665020.1	0.875
777	53978	1665020.407024699798	0.75
777	53983	1665020.709021201864	0.75
777	53992	1665020.944923721168	0.875
777	55008	1697020.2	0.75
777	55012	1697020.5	0.75
777	55018	1697020.71011044689	0.875
777	55026	1697020.933118194314	0.875
777	56051	1729020.1	0.875
777	56057	1729020.319449474298	0.875
777	56064	1729020.547803252616	0.875
777	56073	1729020.773699074046	0.875
777	57082	1761020.1	0.875
777	57085	1761020.3	0.875
777	57091	1761020.51429520044	0.875
777	57096	1761020.821894317294	0.75
777	58099	1793020.3	0.625
777	58102	1793020.5	0.875
777	58106	1793020.704993164883	0.875
777	58111	1793020.921400338519	0.875
777	59127	1825020.1	0.875
777	59130	1825020.3	0.875
777	59134	1825020.503290191621	0.875
777	59140	1825020.81447454289	0.75
777	60183	1857020.1	0.875
777	60187	1857020.4	0.75
777	60196	1857020.638080978451	0.875
777	60202	1857020.849907384826	0.875
777	61214	1889020.2	0.75
777	61217	1889020.4	0.875
777	61221	1889020.601284601325	0.875
777	61227	1889020.821566143507	0.875
777	62293	1921020.1	0.875
777	62297	1921020.4	0.75
777	62306	1921020.639376684028	0.875
777	62310	1921020.841907434902	0.875
777	63319	1953020.1	0.875
777	63322	1953020.3	0.875
777	63337	1953020.742690757814	0.625
777	63341	1953020.943248628967	0.875
777	64335	1985020.3	0.625
777	64339	1985020.6	0.75
777	64343	1985020.801764213778	0.875
777	64350	1985021.025788267132	0.875
777	65383	2017020.1	0.875
777	65387	2017020.4	0.75
777	65391	2017020.605545369877	0.875
777	65395	2017020.808848651609	0.875
778	34	1020.3	0.3
778	39	1020.603454616116	0.3
778	44	1020.82003782322	0.2
778	49	1021.021542219801	0.2
778	1057	33020.2	0.2
778	1060	33020.4	0.2
778	1065	33020.701492909593	0.3
778	1076	33020.938931754043	0.2
778	2133	65020.2	0.2
778	2136	65020.4	0.2
778	2141	65020.701705179901	0.3
778	2147	65020.912839464958	0.2
778	3181	97020.1	0.1
778	3184	97020.3	0.2
778	3188	97020.509488889118	0.2
778	3192	97020.710131605637	0.2
778	4205	129020.1	0.1
778	4213	129020.424099524881	0.3
778	4218	129020.637416310014	0.2
778	4224	129020.951349156844	0.3
778	5203	161020.1	0.1
778	5207	161020.4	0.3
778	5212	161020.703819023664	0.3
778	5216	161020.907369255917	0.2
778	6207	193020.2	0.2
778	6211	193020.5	0.3
778	6216	193020.705405356196	0.2
778	6220	193020.910272920787	0.2
778	7241	225020.1	0.1
778	7244	225020.3	0.2
778	7249	225020.506494514168	0.2
778	7254	225020.813405040007	0.3
778	8283	257020.1	0.1
778	8287	257020.4	0.3
778	8293	257020.614501088471	0.2
778	8297	257020.814662728046	0.2
778	9301	289020.1	0.1
778	9304	289020.3	0.2
778	9308	289020.504026080614	0.2
778	9313	289020.811915274832	0.3
778	10332	321020.1	0.1
778	10335	321020.3	0.2
778	10343	321020.528986128789	0.2
778	10349	321020.745878919565	0.2
778	11411	353020.1	0.1
778	11414	353020.3	0.2
778	11418	353020.507548519105	0.2
778	11423	353020.722617072252	0.2
778	12435	385020.1	0.1
778	12438	385020.3	0.2
778	12442	385020.509974129595	0.2
778	12446	385020.714038420518	0.2
778	13481	417020.1	0.1
778	13484	417020.3	0.2
778	13488	417020.506849679709	0.2
778	13502	417020.774279443508	0.2
778	14518	449020.1	0.1
778	14521	449020.3	0.2
778	14526	449020.601058822222	0.3
778	14530	449020.802028929969	0.2
778	15533	481020.2	0.2
778	15537	481020.5	0.3
778	15542	481020.80535215306	0.3
778	15550	481021.125134556128	0.3
778	16592	513020.1	0.1
778	16596	513020.4	0.3
778	16600	513020.604734706573	0.2
778	16605	513020.807398789002	0.2
778	17616	545020.2	0.2
778	17620	545020.5	0.3
778	17625	545020.709922642564	0.2
778	17631	545020.933147727331	0.2
778	18627	577020.1	0.1
778	18630	577020.3	0.2
778	18634	577020.503304525383	0.2
778	18639	577020.716776852341	0.2
778	19656	609020.2	0.2
778	19660	609020.5	0.3
778	19666	609020.813975065911	0.3
778	19670	609021.014420433497	0.2
778	20678	641020.1	0.1
778	20681	641020.3	0.2
778	20687	641020.509635062111	0.2
778	20697	641020.746516523848	0.2
778	21737	673020.1	0.1
778	21741	673020.4	0.3
778	21745	673020.609143018044	0.2
778	21751	673020.911568647272	0.3
778	22786	705020.2	0.2
778	22790	705020.5	0.3
778	22796	705020.719136045866	0.2
778	22800	705020.927519047525	0.2
778	23794	737020.2	0.2
778	23798	737020.5	0.3
778	23802	737020.700189619273	0.2
778	23806	737020.90718043459	0.2
778	24794	769020.1	0.1
778	24797	769020.3	0.2
778	24802	769020.603645127366	0.3
778	24806	769020.807701063821	0.2
778	25830	801020.1	0.1
778	25834	801020.305261243619	0.2
778	25840	801020.518072280716	0.2
778	25846	801020.731607885555	0.2
778	26854	833020.2	0.2
778	26857	833020.4	0.2
778	26861	833020.609361574463	0.2
778	26869	833020.929051101415	0.3
778	27896	865020.1	0.1
778	27899	865020.3	0.2
778	27904	865020.604754392649	0.3
778	27908	865020.811717110744	0.2
778	28974	897020.2	0.2
778	28978	897020.5	0.3
778	28983	897020.7175288258	0.2
778	28988	897020.931348179391	0.2
778	29996	929020.2	0.2
778	30000	929020.40669873235	0.2
778	30004	929020.614662270878	0.2
778	30010	929020.82813219737	0.2
778	31038	961020.1	0.1
778	31041	961020.3	0.2
778	31046	961020.603718520055	0.3
778	31051	961020.812309854711	0.2
778	32063	993020.2	0.2
778	32068	993020.505995005911	0.3
778	32073	993020.814425017202	0.3
778	32089	993021.065416519739	0.2
778	33117	1025020.2	0.2
778	33122	1025020.500464492018	0.3
778	33129	1025020.802994743178	0.3
778	33135	1025021.023583203089	0.2
778	34166	1057020.1	0.1
778	34169	1057020.3	0.2
778	34174	1057020.51304328947	0.2
778	34178	1057020.716523733904	0.2
778	35214	1089020	0
778	35217	1089020.2	0.2
778	35222	1089020.506251457233	0.3
778	35228	1089020.819119141994	0.3
778	36249	1121020.1	0.1
778	36252	1121020.3	0.2
778	36256	1121020.50431928344	0.2
778	36266	1121020.753757803338	0.2
778	37273	1153020.1	0.1
778	37277	1153020.4	0.3
778	37282	1153020.705883940942	0.3
778	37286	1153020.915255050132	0.2
778	38297	1185020.1	0.1
778	38301	1185020.4	0.3
778	38305	1185020.609031330703	0.2
778	38309	1185020.811940668306	0.2
778	39349	1217020.2	0.2
778	39353	1217020.5	0.3
778	39358	1217020.716296150453	0.2
778	39369	1217021.048680421095	0.3
778	40396	1249020.1	0.1
778	40400	1249020.4	0.3
778	40404	1249020.606445016087	0.2
778	40408	1249020.8104453824	0.2
778	41438	1281020.3	0.3
778	41441	1281020.5	0.2
778	41447	1281020.71376703733	0.2
778	41453	1281020.928602006549	0.2
778	42518	1313020.1	0.1
778	42521	1313020.3	0.2
778	42527	1313020.613482201005	0.3
778	42533	1313020.82580841496	0.2
778	43570	1345020.2	0.2
778	43574	1345020.409002516502	0.2
778	43578	1345020.613686059181	0.2
778	43582	1345020.820628323499	0.2
778	44602	1377020.1	0.1
778	44605	1377020.3	0.2
778	44610	1377020.60823236077	0.3
778	44615	1377020.915558039212	0.3
778	45628	1409020	0
778	45631	1409020.2	0.2
778	45636	1409020.501277270142	0.3
778	45641	1409020.718189493347	0.2
778	46655	1441020.2	0.2
778	46659	1441020.5	0.3
778	46670	1441020.735427936085	0.2
778	46675	1441020.94263727818	0.2
778	47703	1473020	0
778	47707	1473020.3	0.3
778	47714	1473020.613932617387	0.3
778	47719	1473020.917382060586	0.3
778	48748	1505020.1	0.1
778	48751	1505020.3	0.2
778	48755	1505020.505437872216	0.2
778	48759	1505020.709786017806	0.2
778	49764	1537020	0
778	49767	1537020.2	0.2
778	49772	1537020.501786009706	0.3
778	49778	1537020.80781390705	0.3
778	50797	1569020.2	0.2
778	50800	1569020.4	0.2
778	50804	1569020.609540982414	0.2
778	50810	1569020.828342378344	0.2
778	51856	1601020.1	0.1
778	51861	1601020.5	0.4
778	51866	1601020.802172436884	0.3
778	51870	1601021.003158127723	0.2
778	52909	1633020.1	0.1
778	52913	1633020.303498806543	0.2
778	52927	1633020.552093174889	0.2
778	52931	1633020.761031308815	0.2
778	53972	1665020.1	0.1
778	53978	1665020.407024699798	0.3
778	53983	1665020.709021201864	0.3
778	53992	1665020.944923721168	0.2
778	55008	1697020.2	0.2
778	55012	1697020.5	0.3
778	55018	1697020.71011044689	0.2
778	55026	1697020.933118194314	0.2
778	56051	1729020.1	0.1
778	56057	1729020.319449474298	0.2
778	56064	1729020.547803252616	0.2
778	56073	1729020.773699074046	0.2
778	57082	1761020.1	0.1
778	57085	1761020.3	0.2
778	57091	1761020.51429520044	0.2
778	57096	1761020.821894317294	0.3
778	58099	1793020.3	0.3
778	58102	1793020.5	0.2
778	58106	1793020.704993164883	0.2
778	58111	1793020.921400338519	0.2
778	59127	1825020.1	0.1
778	59130	1825020.3	0.2
778	59134	1825020.503290191621	0.2
778	59140	1825020.81447454289	0.3
778	60183	1857020.1	0.1
778	60187	1857020.4	0.3
778	60196	1857020.638080978451	0.2
778	60202	1857020.849907384826	0.2
778	61214	1889020.2	0.2
778	61217	1889020.4	0.2
778	61221	1889020.601284601325	0.2
778	61227	1889020.821566143507	0.2
778	62293	1921020.1	0.1
778	62297	1921020.4	0.3
778	62306	1921020.639376684028	0.2
778	62310	1921020.841907434902	0.2
778	63319	1953020.1	0.1
778	63322	1953020.3	0.2
778	63337	1953020.742690757814	0.4
778	63341	1953020.943248628967	0.2
778	64335	1985020.3	0.3
778	64339	1985020.6	0.3
778	64343	1985020.801764213778	0.2
778	64350	1985021.025788267132	0.2
778	65383	2017020.1	0.1
778	65387	2017020.4	0.3
778	65391	2017020.605545369877	0.2
778	65395	2017020.808848651609	0.2
779	66	2020.1	1
779	69	2020.3	1
779	74	2020.50655413611	1
779	83	2020.741906137826	1
779	1094	34020.2	2
779	1098	34020.5	2
779	1102	34020.70175166781	1
779	1107	34020.908584719531	1
779	2163	66020	0
779	2167	66020.205105734546	1
779	2172	66020.410040858866	1
779	2176	66020.611026824715	1
779	3210	98020.2	2
779	3214	98020.5	2
779	3219	98020.800152393267	2
779	3223	98021.00884139961	1
779	4241	130020.1	1
779	4247	130020.40317933536	2
779	4252	130020.611498408095	1
779	4256	130020.817989156619	1
779	5233	162020.1	1
779	5237	162020.4	2
779	5242	162020.60868431487	1
779	5247	162020.917029038496	2
779	6237	194020.1	1
779	6242	194020.404490688361	2
779	6246	194020.60833640467	1
779	6252	194020.8231449952	1
779	7272	226020.2	2
779	7275	226020.4	1
779	7279	226020.606598354601	1
779	7285	226020.913378155889	2
779	8313	258020	0
779	8316	258020.2	1
779	8320	258020.407288298832	1
779	8326	258020.624932563302	1
779	9331	290020.2	2
779	9334	290020.4	1
779	9338	290020.608426953682	1
779	9347	290020.831819395991	1
779	10367	322020.2	2
779	10371	322020.5	2
779	10380	322020.732053410151	1
779	10384	322020.941676215812	1
779	11441	354020.2	2
779	11445	354020.5	2
779	11450	354020.801139978938	2
779	11456	354021.109394972884	2
779	12464	386020.2	2
779	12467	386020.4	1
779	12471	386020.604444348507	1
779	12475	386020.80522003886	1
779	13520	418020.2	2
779	13523	418020.4	1
779	13529	418020.715055050427	2
779	13533	418020.920563639081	1