version 2
run Stability-63-20130528-00:54:13-21385
attr configname Stability
attr datetime 20130528-00:54:13
attr experiment Stability
attr inifile omnetpp.ini
attr iterationvars $0=1e0
attr iterationvars2 "$0=1e0, $repetition=3"
attr measurement $0=1e0
attr network Network
attr processid 21385
attr repetition 3
attr replication #3
attr resultdir results
attr runnumber 63
attr seedset 63

vector 6207  Network.churner  inGoingSizeSig:vector  ETV
vector 6117  Network.dyn_peer[2]  lookupHopsSig:vector  ETV
vector 6118  Network.dyn_peer[2]  lookupStabilitySig:vector  ETV
vector 6119  Network.dyn_peer[2]  lookupTimeSig:vector  ETV
vector 6168  Network.dyn_peer[19]  lookupHopsSig:vector  ETV
vector 6169  Network.dyn_peer[19]  lookupStabilitySig:vector  ETV
vector 6170  Network.dyn_peer[19]  lookupTimeSig:vector  ETV
vector 6189  Network.dyn_peer[26]  lookupHopsSig:vector  ETV
vector 6190  Network.dyn_peer[26]  lookupStabilitySig:vector  ETV
vector 6191  Network.dyn_peer[26]  lookupTimeSig:vector  ETV
vector 6111  Network.dyn_peer[0]  lookupHopsSig:vector  ETV
vector 6112  Network.dyn_peer[0]  lookupStabilitySig:vector  ETV
vector 6113  Network.dyn_peer[0]  lookupTimeSig:vector  ETV
vector 6120  Network.dyn_peer[3]  lookupHopsSig:vector  ETV
vector 6121  Network.dyn_peer[3]  lookupStabilitySig:vector  ETV
vector 6122  Network.dyn_peer[3]  lookupTimeSig:vector  ETV
vector 6123  Network.dyn_peer[4]  lookupHopsSig:vector  ETV
vector 6124  Network.dyn_peer[4]  lookupStabilitySig:vector  ETV
vector 6125  Network.dyn_peer[4]  lookupTimeSig:vector  ETV
vector 6129  Network.dyn_peer[6]  lookupHopsSig:vector  ETV
vector 6130  Network.dyn_peer[6]  lookupStabilitySig:vector  ETV
vector 6131  Network.dyn_peer[6]  lookupTimeSig:vector  ETV
vector 6171  Network.dyn_peer[20]  lookupHopsSig:vector  ETV
vector 6172  Network.dyn_peer[20]  lookupStabilitySig:vector  ETV
vector 6173  Network.dyn_peer[20]  lookupTimeSig:vector  ETV
vector 6183  Network.dyn_peer[24]  lookupHopsSig:vector  ETV
vector 6184  Network.dyn_peer[24]  lookupStabilitySig:vector  ETV
vector 6185  Network.dyn_peer[24]  lookupTimeSig:vector  ETV
vector 6186  Network.dyn_peer[25]  lookupHopsSig:vector  ETV
vector 6187  Network.dyn_peer[25]  lookupStabilitySig:vector  ETV
vector 6188  Network.dyn_peer[25]  lookupTimeSig:vector  ETV
vector 6195  Network.dyn_peer[28]  lookupHopsSig:vector  ETV
vector 6196  Network.dyn_peer[28]  lookupStabilitySig:vector  ETV
vector 6197  Network.dyn_peer[28]  lookupTimeSig:vector  ETV
vector 6201  Network.dyn_peer[30]  lookupHopsSig:vector  ETV
vector 6202  Network.dyn_peer[30]  lookupStabilitySig:vector  ETV
vector 6203  Network.dyn_peer[30]  lookupTimeSig:vector  ETV
vector 6126  Network.dyn_peer[5]  lookupHopsSig:vector  ETV
vector 6127  Network.dyn_peer[5]  lookupStabilitySig:vector  ETV
vector 6128  Network.dyn_peer[5]  lookupTimeSig:vector  ETV
vector 6135  Network.dyn_peer[8]  lookupHopsSig:vector  ETV
vector 6136  Network.dyn_peer[8]  lookupStabilitySig:vector  ETV
vector 6137  Network.dyn_peer[8]  lookupTimeSig:vector  ETV
vector 6138  Network.dyn_peer[9]  lookupHopsSig:vector  ETV
vector 6139  Network.dyn_peer[9]  lookupStabilitySig:vector  ETV
vector 6140  Network.dyn_peer[9]  lookupTimeSig:vector  ETV
vector 6141  Network.dyn_peer[10]  lookupHopsSig:vector  ETV
vector 6142  Network.dyn_peer[10]  lookupStabilitySig:vector  ETV
vector 6143  Network.dyn_peer[10]  lookupTimeSig:vector  ETV
vector 6150  Network.dyn_peer[13]  lookupHopsSig:vector  ETV
vector 6151  Network.dyn_peer[13]  lookupStabilitySig:vector  ETV
vector 6152  Network.dyn_peer[13]  lookupTimeSig:vector  ETV
vector 6156  Network.dyn_peer[15]  lookupHopsSig:vector  ETV
vector 6157  Network.dyn_peer[15]  lookupStabilitySig:vector  ETV
vector 6158  Network.dyn_peer[15]  lookupTimeSig:vector  ETV
vector 6174  Network.dyn_peer[21]  lookupHopsSig:vector  ETV
vector 6175  Network.dyn_peer[21]  lookupStabilitySig:vector  ETV
vector 6176  Network.dyn_peer[21]  lookupTimeSig:vector  ETV
vector 6177  Network.dyn_peer[22]  lookupHopsSig:vector  ETV
vector 6178  Network.dyn_peer[22]  lookupStabilitySig:vector  ETV
vector 6179  Network.dyn_peer[22]  lookupTimeSig:vector  ETV
vector 6180  Network.dyn_peer[23]  lookupHopsSig:vector  ETV
vector 6181  Network.dyn_peer[23]  lookupStabilitySig:vector  ETV
vector 6182  Network.dyn_peer[23]  lookupTimeSig:vector  ETV
vector 6192  Network.dyn_peer[27]  lookupHopsSig:vector  ETV
vector 6193  Network.dyn_peer[27]  lookupStabilitySig:vector  ETV
vector 6194  Network.dyn_peer[27]  lookupTimeSig:vector  ETV
vector 6198  Network.dyn_peer[29]  lookupHopsSig:vector  ETV
vector 6199  Network.dyn_peer[29]  lookupStabilitySig:vector  ETV
vector 6200  Network.dyn_peer[29]  lookupTimeSig:vector  ETV
vector 6204  Network.dyn_peer[31]  lookupHopsSig:vector  ETV
vector 6205  Network.dyn_peer[31]  lookupStabilitySig:vector  ETV
vector 6206  Network.dyn_peer[31]  lookupTimeSig:vector  ETV
vector 6132  Network.dyn_peer[7]  lookupHopsSig:vector  ETV
vector 6133  Network.dyn_peer[7]  lookupStabilitySig:vector  ETV
vector 6134  Network.dyn_peer[7]  lookupTimeSig:vector  ETV
vector 6144  Network.dyn_peer[11]  lookupHopsSig:vector  ETV
vector 6145  Network.dyn_peer[11]  lookupStabilitySig:vector  ETV
vector 6146  Network.dyn_peer[11]  lookupTimeSig:vector  ETV
vector 6147  Network.dyn_peer[12]  lookupHopsSig:vector  ETV
vector 6148  Network.dyn_peer[12]  lookupStabilitySig:vector  ETV
vector 6149  Network.dyn_peer[12]  lookupTimeSig:vector  ETV
vector 6153  Network.dyn_peer[14]  lookupHopsSig:vector  ETV
vector 6154  Network.dyn_peer[14]  lookupStabilitySig:vector  ETV
vector 6155  Network.dyn_peer[14]  lookupTimeSig:vector  ETV
vector 6159  Network.dyn_peer[16]  lookupHopsSig:vector  ETV
vector 6160  Network.dyn_peer[16]  lookupStabilitySig:vector  ETV
vector 6161  Network.dyn_peer[16]  lookupTimeSig:vector  ETV
vector 6162  Network.dyn_peer[17]  lookupHopsSig:vector  ETV
vector 6163  Network.dyn_peer[17]  lookupStabilitySig:vector  ETV
vector 6164  Network.dyn_peer[17]  lookupTimeSig:vector  ETV
vector 6114  Network.dyn_peer[1]  lookupHopsSig:vector  ETV
vector 6115  Network.dyn_peer[1]  lookupStabilitySig:vector  ETV
vector 6116  Network.dyn_peer[1]  lookupTimeSig:vector  ETV
vector 6165  Network.dyn_peer[18]  lookupHopsSig:vector  ETV
vector 6166  Network.dyn_peer[18]  lookupStabilitySig:vector  ETV
vector 6167  Network.dyn_peer[18]  lookupTimeSig:vector  ETV
6111	136	20.101	1
6111	405	20.501	3
6111	766	21.008598374923	4
6111	1582	21.7171	6
6111	1591	21.71968410202	6
6111	1992	22.015292639449	9
6111	2518	22.417251557679	4
6111	3328	23.117251557679	7
6111	3539	23.327009863717	1
6111	3946	23.727879385848	3
6111	3983	23.740004006788	2
6111	4533	24.24260139116	5
6111	5419	25.14260139116	9
6111	6126	25.746427324781	5
6111	6366	25.953621302341	1
6111	6605	26.163107242507	10
6111	6855	26.36218095497	3
6111	6885	26.365220857913	0
6111	7202	26.568092740209	3
6111	7797	26.969805373175	3
6111	8135	27.270905373175	3
6111	8641	27.770905373175	4
6111	9371	28.372005373175	7
6111	9661	28.572005373175	1
6111	10076	28.875290617582	2
6111	10311	29.076390617582	2
6111	10875	29.576390617582	4
6111	11612	30.181668031759	5
6111	12096	30.588470771546	3
6111	12442	30.891332598783	2
6111	12874	31.291711848648	3
6111	13203	31.593002430577	2
6111	13361	31.694102430577	1
6111	14480	32.594102430577	9
6111	14865	32.864852183236	4
6111	14884	32.894960149722	2
6111	15514	33.274077908311	4
6111	16385	33.976567397063	7
6111	17115	34.676567397063	6
6111	17979	35.473181592591	5
6111	18019	35.485536870277	8
6111	18231	35.677414747392	2
6111	18237	35.67957139877	5
6111	18454	35.872591761133	2
6111	18478	35.886338088186	4
6111	18546	35.97935479187	2
6111	18580	35.987081487378	0
6111	19575	36.887081487378	9
6111	20201	37.489206084456	5
6111	20568	37.894750905452	3
6111	21285	38.503842623031	5
6111	21429	38.606763342836	3
6111	21934	39.014307648547	4
6111	22018	39.106611300722	5
6111	22661	39.616952290788	5
6111	23463	40.316952290788	7
6111	23975	40.650479195296	3
6111	24263	40.85185046975	2
6111	24270	40.854120789222	2
6111	24774	41.257281417512	4
6111	26041	42.457281417512	11
6111	26526	42.860510239643	3
6111	26762	43.074258632401	1
6111	27051	43.276220044467	1
6111	27081	43.330694270618	1
6111	27205	43.418221367435	6
6111	28534	44.384211942328	11
6111	28546	44.434789486878	11
6111	28551	44.437329146795	10
6111	28648	44.522962630202	12
6111	28690	44.555031159272	7
6111	28763	44.591220389869	1
6111	29247	44.995605159399	4
6111	29783	45.395605159399	4
6111	30188	45.689640448886	2
6111	30630	46.089640448886	3
6111	31361	46.686914684909	2
6111	31435	46.697088436487	5
6111	31935	47.003966739997	3
6111	32000	47.0869198993	2
6111	32267	47.211608875842	1
6111	32923	47.714544213023	5
6111	33678	48.314544213023	5
6111	34218	48.719456086005	3
6111	34371	48.860675047638	2
6111	34462	48.930603070347	1
6111	34620	49.072351141123	1
6111	35002	49.373451141123	3
6111	35730	49.973451141123	6
6111	36038	50.275120354738	2
6111	36349	50.582061717187	2
6111	36584	50.79111877427	1
6111	36793	50.992692575939	1
6111	36814	51.005970876331	4
6111	37130	51.310458029447	2
6111	37132	51.311813233497	2
6111	37530	51.612913233497	3
6111	38476	52.412913233497	8
6111	39360	53.038452760705	5
6111	39768	53.338452760705	3
6111	40214	53.648026955325	2
6111	40440	53.849126955325	2
6111	40795	54.149126955325	2
6111	41314	54.550226955325	5
6111	42444	55.557399500005	11
6111	43174	56.164708675399	5
6111	43362	56.354914861334	7
6111	43380	56.357315369739	0
6111	44439	57.257315369739	8
6111	44716	57.460461648417	1
6111	45484	58.168154567741	7
6111	46081	58.772402084634	6
6111	46773	59.372402084634	5
6111	48070	60.577869685676	13
6111	48768	61.078969685676	5
6111	48977	61.278969685676	1
6111	49432	61.588261874485	3
6111	50094	62.204563996081	7
6111	50986	63.004563996081	8
6111	51373	63.318549833612	1
6111	51893	63.807908057835	9
6111	52691	64.509008057835	9
6111	53040	64.809008057835	2
6111	54687	66.210108057835	15
6111	55163	66.634175477914	3
6111	55491	66.938363811169	2
6111	55612	67.045921957671	1
6111	55978	67.445921957671	3
6111	56319	67.755744045662	2
6111	57317	68.516813009691	7
6111	57967	69.039719744333	1
6111	58217	69.216813009691	8
6111	58247	69.240238561724	2
6111	58683	69.640296871422	3
6111	58892	69.818696762565	6
6111	60078	70.726243573425	9
6111	60316	70.926243573425	1
6111	60815	71.33192846969	3
6111	60823	71.335493170976	3
6111	61171	71.640184627238	2
6111	61176	71.644430423202	2
6111	61231	71.683928257554	4
6111	61853	72.193967930574	5
6111	62313	72.593967930574	3
6111	62776	72.999708244278	3
6111	63198	73.308943873115	2
6111	63569	73.615112202171	2
6111	64157	74.217072915466	6
6111	64505	74.625803791663	4
6111	65172	75.143350744311	3
6111	65402	75.325803791663	9
6111	65539	75.431066119551	1
6111	65940	75.749990448749	5
6111	66431	76.057683993488	3
6111	67819	77.057683993488	10
6111	68279	77.466833707278	3
6111	68656	77.768394703236	2
6111	69108	78.177337384195	3
6111	70115	78.878437384195	8
6111	71244	79.821884850384	2
6111	71899	80.321884850384	4
6111	72599	80.828441349542	4
6111	72602	80.830072633057	3
6111	73562	81.531172633057	8
6111	74320	82.170476370074	1
6111	74356	82.231172633057	7
6111	74778	82.571609743712	4
6111	75255	82.97563917042	4
6111	75902	83.578516318448	5
6111	76075	83.755328542563	1
6111	76243	83.886244142743	2
6111	77042	84.496291810765	6
6111	77538	84.90481347624	2
6111	77837	85.20481347624	2
6111	78293	85.612605598392	3
6111	79058	86.220668850747	5
6111	79553	86.625837266732	3
6111	79910	86.891670081857	13
6111	80199	87.094170668076	2
6111	80472	87.300729243342	1
6111	80983	87.710119854249	4
6111	81845	88.410119854249	6
6111	82421	88.81915081666	3
6111	82954	89.220978232064	3
6111	83744	89.824646324233	6
6111	84098	90.131577729342	2
6111	84590	90.640724418676	5
6111	85424	91.344633419524	9
6111	85776	91.644633419524	2
6111	86844	92.750879627038	10
6111	87598	93.351979627038	6
6111	88208	93.951979627038	5
6111	88738	94.45200461675	4
6111	89028	94.675185426975	4
6111	90611	95.7830919349	15
6111	91108	96.1830919349	3
6111	91880	96.792118092275	6
6111	92075	96.992118092275	1
6111	92409	97.293469954477	2
6111	92777	97.594410872218	2
6111	92803	97.599909466521	0
6111	94321	98.891507978441	3
6111	94352	98.899909466521	13
6111	94787	99.306621133894	3
6111	94888	99.397860425779	4
6111	95052	99.568979468954	3
6111	96583	100.875103080577	14
6111	97123	101.275103080577	3
6111	97899	101.784898741004	4
6111	98731	102.487064048261	8
6111	99487	103.187064048261	7
6111	100459	104.088164048261	10
6111	101170	104.648623665236	2
6111	101721	105.149723665236	5
6111	102444	105.749723665236	6
6111	102939	106.157579766431	4
6111	102952	106.162010498809	2
6111	103383	106.468356611288	2
6111	103842	106.771385572863	3
6111	104291	107.071385572863	2
6111	104571	107.279063817674	2
6111	105026	107.68365291524	4
6111	106039	108.58365291524	8
6111	106166	108.688549196146	1
6111	106377	108.888549196146	1
6111	107117	109.489044430745	5
6111	107142	109.503018270869	2
6111	107801	110.013818119014	6
6111	108417	110.513818119014	5
6111	109208	111.114740535557	5
6111	110210	111.815840535557	7
6111	110646	112.115840535557	2
6111	111098	112.425244232006	2
6111	112372	113.626857688241	12
6111	112718	113.932178609428	2
6111	112952	114.180363648001	2
6111	114439	115.388198699892	13
6111	115527	116.29160739197	1
6111	116224	116.897160366079	6
6111	116765	117.397160366079	4
6111	117068	117.66226031505	6
6111	117092	117.681210190405	7
6111	117309	117.87137627389	1
6111	117949	118.476980436	6
6111	118572	119.076980436	6
6111	119018	119.482958692552	3
6111	119540	119.892418560684	4
6111	120332	120.592418560684	6
6111	120641	120.892443134107	2
6111	121332	121.497727576467	5
6111	121511	121.633591232413	5
6111	121887	121.856377892536	1
6111	122471	122.357568886777	5
6111	122986	122.858578554539	4
6111	123333	123.201216999309	7
6111	123603	123.463297442524	5
6111	123858	123.664397442524	3
6111	124153	123.964397442524	2
6111	124738	124.465009968463	4
6111	125191	124.873430936367	3
6111	125500	125.182701504947	2
6111	125771	125.400244404505	1
6111	126429	126.001344404505	7
6111	127004	126.501344404505	5
6111	127256	126.709272549916	1
6111	127712	127.114808994015	5
6111	128331	127.614808994015	4
6111	128555	127.824493649716	1
6111	128953	128.225593649716	4
6111	129146	128.425593649716	1
6111	130053	129.227064980453	7
6111	131085	130.035277529244	8
6111	131796	130.635277529244	5
6111	132465	131.139727085513	5
6111	132614	131.260166754999	5
6111	132966	131.544523221399	3
6111	132981	131.551862887543	0
6111	133991	132.351862887543	7
6111	134706	132.954052081397	5
6111	135343	133.554954322034	5
6111	135920	134.073431309675	4
6111	136032	134.182284914267	1
6111	137265	135.482284914267	13
6111	137603	135.88294861922	3
6111	137908	136.789118235087	10
6111	137918	136.996027520956	1
6111	137922	137.202512556734	1
6112	136	20.101	0.875
6112	405	20.501	0.625
6112	766	21.008598374923	0.5
6112	1582	21.7171	0.25
6112	1591	21.71968410202	0.25
6112	1992	22.015292639449	-0.125
6112	2518	22.417251557679	0.5
6112	3328	23.117251557679	0.125
6112	3539	23.327009863717	0.875
6112	3946	23.727879385848	0.625
6112	3983	23.740004006788	0.75
6112	4533	24.24260139116	0.375
6112	5419	25.14260139116	-0.125
6112	6126	25.746427324781	0.375
6112	6366	25.953621302341	0.875
6112	6605	26.163107242507	-0.25
6112	6855	26.36218095497	0.625
6112	6885	26.365220857913	1
6112	7202	26.568092740209	0.625
6112	7797	26.969805373175	0.625
6112	8135	27.270905373175	0.625
6112	8641	27.770905373175	0.5
6112	9371	28.372005373175	0.125
6112	9661	28.572005373175	0.875
6112	10076	28.875290617582	0.75
6112	10311	29.076390617582	0.75
6112	10875	29.576390617582	0.5
6112	11612	30.181668031759	0.375
6112	12096	30.588470771546	0.625
6112	12442	30.891332598783	0.75
6112	12874	31.291711848648	0.625
6112	13203	31.593002430577	0.75
6112	13361	31.694102430577	0.875
6112	14480	32.594102430577	-0.125
6112	14865	32.864852183236	0.5
6112	14884	32.894960149722	0.75
6112	15514	33.274077908311	0.5
6112	16385	33.976567397063	0.125
6112	17115	34.676567397063	0.25
6112	17979	35.473181592591	0.375
6112	18019	35.485536870277	0
6112	18231	35.677414747392	0.75
6112	18237	35.67957139877	0.375
6112	18454	35.872591761133	0.75
6112	18478	35.886338088186	0.5
6112	18546	35.97935479187	0.75
6112	18580	35.987081487378	1
6112	19575	36.887081487378	-0.125
6112	20201	37.489206084456	0.375
6112	20568	37.894750905452	0.625
6112	21285	38.503842623031	0.375
6112	21429	38.606763342836	0.625
6112	21934	39.014307648547	0.5
6112	22018	39.106611300722	0.375
6112	22661	39.616952290788	0.375
6112	23463	40.316952290788	0.125
6112	23975	40.650479195296	0.625
6112	24263	40.85185046975	0.75
6112	24270	40.854120789222	0.75
6112	24774	41.257281417512	0.5
6112	26041	42.457281417512	-0.375
6112	26526	42.860510239643	0.625
6112	26762	43.074258632401	0.875
6112	27051	43.276220044467	0.875
6112	27081	43.330694270618	0.875
6112	27205	43.418221367435	0.25
6112	28534	44.384211942328	-0.375
6112	28546	44.434789486878	-0.375
6112	28551	44.437329146795	-0.25
6112	28648	44.522962630202	-0.5
6112	28690	44.555031159272	0.125
6112	28763	44.591220389869	0.875
6112	29247	44.995605159399	0.5
6112	29783	45.395605159399	0.5
6112	30188	45.689640448886	0.75
6112	30630	46.089640448886	0.625
6112	31361	46.686914684909	0.75
6112	31435	46.697088436487	0.375
6112	31935	47.003966739997	0.625
6112	32000	47.0869198993	0.75
6112	32267	47.211608875842	0.875
6112	32923	47.714544213023	0.375
6112	33678	48.314544213023	0.375
6112	34218	48.719456086005	0.625
6112	34371	48.860675047638	0.75
6112	34462	48.930603070347	0.875
6112	34620	49.072351141123	0.875
6112	35002	49.373451141123	0.625
6112	35730	49.973451141123	0.25
6112	36038	50.275120354738	0.75
6112	36349	50.582061717187	0.75
6112	36584	50.79111877427	0.875
6112	36793	50.992692575939	0.875
6112	36814	51.005970876331	0.5
6112	37130	51.310458029447	0.75
6112	37132	51.311813233497	0.75
6112	37530	51.612913233497	0.625
6112	38476	52.412913233497	0
6112	39360	53.038452760705	0.375
6112	39768	53.338452760705	0.625
6112	40214	53.648026955325	0.75
6112	40440	53.849126955325	0.75
6112	40795	54.149126955325	0.75
6112	41314	54.550226955325	0.375
6112	42444	55.557399500005	-0.375
6112	43174	56.164708675399	0.375
6112	43362	56.354914861334	0.125
6112	43380	56.357315369739	1
6112	44439	57.257315369739	0
6112	44716	57.460461648417	0.875
6112	45484	58.168154567741	0.22222220897675
6112	46081	58.772402084634	0.25
6112	46773	59.372402084634	0.375
6112	48070	60.577869685676	-0.625
6112	48768	61.078969685676	0.375
6112	48977	61.278969685676	0.875
6112	49432	61.588261874485	0.625
6112	50094	62.204563996081	0.125
6112	50986	63.004563996081	0
6112	51373	63.318549833612	0.875
6112	51893	63.807908057835	-0.125
6112	52691	64.509008057835	-0.125
6112	53040	64.809008057835	0.75
6112	54687	66.210108057835	-0.875
6112	55163	66.634175477914	0.625
6112	55491	66.938363811169	0.75
6112	55612	67.045921957671	0.875
6112	55978	67.445921957671	0.625
6112	56319	67.755744045662	0.75
6112	57317	68.516813009691	0.125
6112	57967	69.039719744333	0.875
6112	58217	69.216813009691	0
6112	58247	69.240238561724	0.75
6112	58683	69.640296871422	0.625
6112	58892	69.818696762565	0.25
6112	60078	70.726243573425	-0.125
6112	60316	70.926243573425	0.875
6112	60815	71.33192846969	0.625
6112	60823	71.335493170976	0.625
6112	61171	71.640184627238	0.75
6112	61176	71.644430423202	0.75
6112	61231	71.683928257554	0.5
6112	61853	72.193967930574	0.375
6112	62313	72.593967930574	0.625
6112	62776	72.999708244278	0.625
6112	63198	73.308943873115	0.75
6112	63569	73.615112202171	0.75
6112	64157	74.217072915466	0.25
6112	64505	74.625803791663	0.5
6112	65172	75.143350744311	0.625
6112	65402	75.325803791663	-0.125
6112	65539	75.431066119551	0.875
6112	65940	75.749990448749	0.375
6112	66431	76.057683993488	0.625
6112	67819	77.057683993488	-0.25
6112	68279	77.466833707278	0.625
6112	68656	77.768394703236	0.75
6112	69108	78.177337384195	0.625
6112	70115	78.878437384195	0
6112	71244	79.821884850384	0.75
6112	71899	80.321884850384	0.5
6112	72599	80.828441349542	0.5
6112	72602	80.830072633057	0.625
6112	73562	81.531172633057	0
6112	74320	82.170476370074	0.875
6112	74356	82.231172633057	0.125
6112	74778	82.571609743712	0.5
6112	75255	82.97563917042	0.5
6112	75902	83.578516318448	0.375
6112	76075	83.755328542563	0.875
6112	76243	83.886244142743	0.75
6112	77042	84.496291810765	0.25
6112	77538	84.90481347624	0.75
6112	77837	85.20481347624	0.75
6112	78293	85.612605598392	0.625
6112	79058	86.220668850747	0.375
6112	79553	86.625837266732	0.625
6112	79910	86.891670081857	-0.625
6112	80199	87.094170668076	0.75
6112	80472	87.300729243342	0.875
6112	80983	87.710119854249	0.5
6112	81845	88.410119854249	0.25
6112	82421	88.81915081666	0.625
6112	82954	89.220978232064	0.625
6112	83744	89.824646324233	0.25
6112	84098	90.131577729342	0.75
6112	84590	90.640724418676	0.375
6112	85424	91.344633419524	-0.125
6112	85776	91.644633419524	0.75
6112	86844	92.750879627038	-0.25
6112	87598	93.351979627038	0.25
6112	88208	93.951979627038	0.375
6112	88738	94.45200461675	0.5
6112	89028	94.675185426975	0.5
6112	90611	95.7830919349	-0.875
6112	91108	96.1830919349	0.625
6112	91880	96.792118092275	0.25
6112	92075	96.992118092275	0.875
6112	92409	97.293469954477	0.75
6112	92777	97.594410872218	0.75
6112	92803	97.599909466521	1
6112	94321	98.891507978441	0.625
6112	94352	98.899909466521	-0.625
6112	94787	99.306621133894	0.625
6112	94888	99.397860425779	0.5
6112	95052	99.568979468954	0.625
6112	96583	100.875103080577	-0.75
6112	97123	101.275103080577	0.625
6112	97899	101.784898741004	0.5
6112	98731	102.487064048261	0
6112	99487	103.187064048261	0.125
6112	100459	104.088164048261	-0.25
6112	101170	104.648623665236	0.75
6112	101721	105.149723665236	0.375
6112	102444	105.749723665236	0.25
6112	102939	106.157579766431	0.5
6112	102952	106.162010498809	0.75
6112	103383	106.468356611288	0.75
6112	103842	106.771385572863	0.625
6112	104291	107.071385572863	0.75
6112	104571	107.279063817674	0.75
6112	105026	107.68365291524	0.5
6112	106039	108.58365291524	0
6112	106166	108.688549196146	0.875
6112	106377	108.888549196146	0.875
6112	107117	109.489044430745	0.375
6112	107142	109.503018270869	0.75
6112	107801	110.013818119014	0.25
6112	108417	110.513818119014	0.375
6112	109208	111.114740535557	0.375
6112	110210	111.815840535557	0.125
6112	110646	112.115840535557	0.75
6112	111098	112.425244232006	0.75
6112	112372	113.626857688241	-0.5
6112	112718	113.932178609428	0.75
6112	112952	114.180363648001	0.75
6112	114439	115.388198699892	-0.625
6112	115527	116.29160739197	0.875
6112	116224	116.897160366079	0.25
6112	116765	117.397160366079	0.5
6112	117068	117.66226031505	0.25
6112	117092	117.681210190405	0.125
6112	117309	117.87137627389	0.875
6112	117949	118.476980436	0.25
6112	118572	119.076980436	0.25
6112	119018	119.482958692552	0.625
6112	119540	119.892418560684	0.5
6112	120332	120.592418560684	0.25
6112	120641	120.892443134107	0.75
6112	121332	121.497727576467	0.375
6112	121511	121.633591232413	0.375
6112	121887	121.856377892536	0.875
6112	122471	122.357568886777	0.375
6112	122986	122.858578554539	0.5
6112	123333	123.201216999309	0.125
6112	123603	123.463297442524	0.375
6112	123858	123.664397442524	0.625
6112	124153	123.964397442524	0.75
6112	124738	124.465009968463	0.5
6112	125191	124.873430936367	0.625
6112	125500	125.182701504947	0.75
6112	125771	125.400244404505	0.875
6112	126429	126.001344404505	0.125
6112	127004	126.501344404505	0.375
6112	127256	126.709272549916	0.875
6112	127712	127.114808994015	0.375
6112	128331	127.614808994015	0.5
6112	128555	127.824493649716	0.875
6112	128953	128.225593649716	0.5
6112	129146	128.425593649716	0.875
6112	130053	129.227064980453	0.125
6112	131085	130.035277529244	0
6112	131796	130.635277529244	0.375
6112	132465	131.139727085513	0.375
6112	132614	131.260166754999	0.375
6112	132966	131.544523221399	0.625
6112	132981	131.551862887543	1
6112	133991	132.351862887543	0.125
6112	134706	132.954052081397	0.375
6112	135343	133.554954322034	0.375
6112	135920	134.073431309675	0.5
6112	136032	134.182284914267	0.875
6112	137265	135.482284914267	-0.625
6112	137603	135.88294861922	0.625
6112	137908	136.789118235087	-0.25
6112	137918	136.996027520956	0.875
6112	137922	137.202512556734	0.875
6113	136	20.101	0.1
6113	405	20.501	0.4
6113	766	21.008598374923	0.5
6113	1582	21.7171	0.6
6113	1591	21.71968410202	0.6
6113	1992	22.015292639449	1
6113	2518	22.417251557679	0.4
6113	3328	23.117251557679	0.7
6113	3539	23.327009863717	0.2
6113	3946	23.727879385848	0.4
6113	3983	23.740004006788	0.3
6113	4533	24.24260139116	0.5
6113	5419	25.14260139116	0.9
6113	6126	25.746427324781	0.6
6113	6366	25.953621302341	0.2
6113	6605	26.163107242507	1
6113	6855	26.36218095497	0.4
6113	6885	26.365220857913	0
6113	7202	26.568092740209	0.2
6113	7797	26.969805373175	0.4
6113	8135	27.270905373175	0.3
6113	8641	27.770905373175	0.5
6113	9371	28.372005373175	0.6
6113	9661	28.572005373175	0.2
6113	10076	28.875290617582	0.3
6113	10311	29.076390617582	0.2
6113	10875	29.576390617582	0.5
6113	11612	30.181668031759	0.6
6113	12096	30.588470771546	0.4
6113	12442	30.891332598783	0.3
6113	12874	31.291711848648	0.4
6113	13203	31.593002430577	0.3
6113	13361	31.694102430577	0.1
6113	14480	32.594102430577	0.9
6113	14865	32.864852183236	0.5
6113	14884	32.894960149722	0.3
6113	15514	33.274077908311	0.4
6113	16385	33.976567397063	0.7
6113	17115	34.676567397063	0.7
6113	17979	35.473181592591	0.6
6113	18019	35.485536870277	0.8
6113	18231	35.677414747392	0.2
6113	18237	35.67957139877	0.6
6113	18454	35.872591761133	0.3
6113	18478	35.886338088186	0.4
6113	18546	35.97935479187	0.3
6113	18580	35.987081487378	0
6113	19575	36.887081487378	0.9
6113	20201	37.489206084456	0.6
6113	20568	37.894750905452	0.4
6113	21285	38.503842623031	0.6
6113	21429	38.606763342836	0.4
6113	21934	39.014307648547	0.4
6113	22018	39.106611300722	0.6
6113	22661	39.616952290788	0.5
6113	23463	40.316952290788	0.7
6113	23975	40.650479195296	0.3
6113	24263	40.85185046975	0.2
6113	24270	40.854120789222	0.2
6113	24774	41.257281417512	0.4
6113	26041	42.457281417512	1.2
6113	26526	42.860510239643	0.4
6113	26762	43.074258632401	0.2
6113	27051	43.276220044467	0.2
6113	27081	43.330694270618	0.2
6113	27205	43.418221367435	0.7
6113	28534	44.384211942328	1.1
6113	28546	44.434789486878	1.1
6113	28551	44.437329146795	1.1
6113	28648	44.522962630202	1.1
6113	28690	44.555031159272	0.8
6113	28763	44.591220389869	0.2
6113	29247	44.995605159399	0.4
6113	29783	45.395605159399	0.4
6113	30188	45.689640448886	0.2
6113	30630	46.089640448886	0.4
6113	31361	46.686914684909	0.3
6113	31435	46.697088436487	0.6
6113	31935	47.003966739997	0.3
6113	32000	47.0869198993	0.3
6113	32267	47.211608875842	0.2
6113	32923	47.714544213023	0.5
6113	33678	48.314544213023	0.6
6113	34218	48.719456086005	0.4
6113	34371	48.860675047638	0.3
6113	34462	48.930603070347	0.2
6113	34620	49.072351141123	0.2
6113	35002	49.373451141123	0.3
6113	35730	49.973451141123	0.6
6113	36038	50.275120354738	0.3
6113	36349	50.582061717187	0.3
6113	36584	50.79111877427	0.2
6113	36793	50.992692575939	0.2
6113	36814	51.005970876331	0.5
6113	37130	51.310458029447	0.3
6113	37132	51.311813233497	0.3
6113	37530	51.612913233497	0.3
6113	38476	52.412913233497	0.8
6113	39360	53.038452760705	0.5
6113	39768	53.338452760705	0.3
6113	40214	53.648026955325	0.3
6113	40440	53.849126955325	0.2
6113	40795	54.149126955325	0.3
6113	41314	54.550226955325	0.4
6113	42444	55.557399500005	1
6113	43174	56.164708675399	0.6
6113	43362	56.354914861334	0.8
6113	43380	56.357315369739	0
6113	44439	57.257315369739	0.9
6113	44716	57.460461648417	0.2
6113	45484	58.168154567741	0.7
6113	46081	58.772402084634	0.6
6113	46773	59.372402084634	0.6
6113	48070	60.577869685676	1.2
6113	48768	61.078969685676	0.5
6113	48977	61.278969685676	0.2
6113	49432	61.588261874485	0.3
6113	50094	62.204563996081	0.6
6113	50986	63.004563996081	0.8
6113	51373	63.318549833612	0.2
6113	51893	63.807908057835	0.8
6113	52691	64.509008057835	0.7
6113	53040	64.809008057835	0.3
6113	54687	66.210108057835	1.4
6113	55163	66.634175477914	0.4
6113	55491	66.938363811169	0.3
6113	55612	67.045921957671	0.1
6113	55978	67.445921957671	0.4
6113	56319	67.755744045662	0.3
6113	57317	68.516813009691	0.6
6113	57967	69.039719744333	0.2
6113	58217	69.216813009691	0.7
6113	58247	69.240238561724	0.2
6113	58683	69.640296871422	0.4
6113	58892	69.818696762565	0.6
6113	60078	70.726243573425	0.9
6113	60316	70.926243573425	0.2
6113	60815	71.33192846969	0.4
6113	60823	71.335493170976	0.4
6113	61171	71.640184627238	0.3
6113	61176	71.644430423202	0.3
6113	61231	71.683928257554	0.5
6113	61853	72.193967930574	0.5
6113	62313	72.593967930574	0.4
6113	62776	72.999708244278	0.4
6113	63198	73.308943873115	0.3
6113	63569	73.615112202171	0.3
6113	64157	74.217072915466	0.6
6113	64505	74.625803791663	0.4
6113	65172	75.143350744311	0.4
6113	65402	75.325803791663	0.7
6113	65539	75.431066119551	0.1
6113	65940	75.749990448749	0.6
6113	66431	76.057683993488	0.3
6113	67819	77.057683993488	1
6113	68279	77.466833707278	0.4
6113	68656	77.768394703236	0.3
6113	69108	78.177337384195	0.4
6113	70115	78.878437384195	0.7
6113	71244	79.821884850384	0.2
6113	71899	80.321884850384	0.5
6113	72599	80.828441349542	0.5
6113	72602	80.830072633057	0.4
6113	73562	81.531172633057	0.7
6113	74320	82.170476370074	0.2
6113	74356	82.231172633057	0.7
6113	74778	82.571609743712	0.4
6113	75255	82.97563917042	0.4
6113	75902	83.578516318448	0.6
6113	76075	83.755328542563	0.2
6113	76243	83.886244142743	0.3
6113	77042	84.496291810765	0.6
6113	77538	84.90481347624	0.2
6113	77837	85.20481347624	0.3
6113	78293	85.612605598392	0.4
6113	79058	86.220668850747	0.6
6113	79553	86.625837266732	0.4
6113	79910	86.891670081857	1.2
6113	80199	87.094170668076	0.2
6113	80472	87.300729243342	0.2
6113	80983	87.710119854249	0.4
6113	81845	88.410119854249	0.7
6113	82421	88.81915081666	0.4
6113	82954	89.220978232064	0.4
6113	83744	89.824646324233	0.6
6113	84098	90.131577729342	0.3
6113	84590	90.640724418676	0.5
6113	85424	91.344633419524	0.7