version 2
run Stability-55-20130528-00:53:38-21385
attr configname Stability
attr datetime 20130528-00:53:38
attr experiment Stability
attr inifile omnetpp.ini
attr iterationvars $0=1e1
attr iterationvars2 "$0=1e1, $repetition=5"
attr measurement $0=1e1
attr network Network
attr processid 21385
attr repetition 5
attr replication #5
attr resultdir results
attr runnumber 55
attr seedset 55

vector 5431  Network.churner  inGoingSizeSig:vector  ETV
vector 5335  Network.dyn_peer[0]  lookupHopsSig:vector  ETV
vector 5336  Network.dyn_peer[0]  lookupStabilitySig:vector  ETV
vector 5337  Network.dyn_peer[0]  lookupTimeSig:vector  ETV
vector 5350  Network.dyn_peer[5]  lookupHopsSig:vector  ETV
vector 5351  Network.dyn_peer[5]  lookupStabilitySig:vector  ETV
vector 5352  Network.dyn_peer[5]  lookupTimeSig:vector  ETV
vector 5359  Network.dyn_peer[8]  lookupHopsSig:vector  ETV
vector 5360  Network.dyn_peer[8]  lookupStabilitySig:vector  ETV
vector 5361  Network.dyn_peer[8]  lookupTimeSig:vector  ETV
vector 5338  Network.dyn_peer[1]  lookupHopsSig:vector  ETV
vector 5339  Network.dyn_peer[1]  lookupStabilitySig:vector  ETV
vector 5340  Network.dyn_peer[1]  lookupTimeSig:vector  ETV
vector 5341  Network.dyn_peer[2]  lookupHopsSig:vector  ETV
vector 5342  Network.dyn_peer[2]  lookupStabilitySig:vector  ETV
vector 5343  Network.dyn_peer[2]  lookupTimeSig:vector  ETV
vector 5377  Network.dyn_peer[14]  lookupHopsSig:vector  ETV
vector 5378  Network.dyn_peer[14]  lookupStabilitySig:vector  ETV
vector 5379  Network.dyn_peer[14]  lookupTimeSig:vector  ETV
vector 5362  Network.dyn_peer[9]  lookupHopsSig:vector  ETV
vector 5363  Network.dyn_peer[9]  lookupStabilitySig:vector  ETV
vector 5364  Network.dyn_peer[9]  lookupTimeSig:vector  ETV
vector 5398  Network.dyn_peer[21]  lookupHopsSig:vector  ETV
vector 5399  Network.dyn_peer[21]  lookupStabilitySig:vector  ETV
vector 5400  Network.dyn_peer[21]  lookupTimeSig:vector  ETV
vector 5344  Network.dyn_peer[3]  lookupHopsSig:vector  ETV
vector 5345  Network.dyn_peer[3]  lookupStabilitySig:vector  ETV
vector 5346  Network.dyn_peer[3]  lookupTimeSig:vector  ETV
vector 5374  Network.dyn_peer[13]  lookupHopsSig:vector  ETV
vector 5375  Network.dyn_peer[13]  lookupStabilitySig:vector  ETV
vector 5376  Network.dyn_peer[13]  lookupTimeSig:vector  ETV
vector 5380  Network.dyn_peer[15]  lookupHopsSig:vector  ETV
vector 5381  Network.dyn_peer[15]  lookupStabilitySig:vector  ETV
vector 5382  Network.dyn_peer[15]  lookupTimeSig:vector  ETV
vector 5353  Network.dyn_peer[6]  lookupHopsSig:vector  ETV
vector 5354  Network.dyn_peer[6]  lookupStabilitySig:vector  ETV
vector 5355  Network.dyn_peer[6]  lookupTimeSig:vector  ETV
vector 5368  Network.dyn_peer[11]  lookupHopsSig:vector  ETV
vector 5369  Network.dyn_peer[11]  lookupStabilitySig:vector  ETV
vector 5370  Network.dyn_peer[11]  lookupTimeSig:vector  ETV
vector 5371  Network.dyn_peer[12]  lookupHopsSig:vector  ETV
vector 5372  Network.dyn_peer[12]  lookupStabilitySig:vector  ETV
vector 5373  Network.dyn_peer[12]  lookupTimeSig:vector  ETV
vector 5401  Network.dyn_peer[22]  lookupHopsSig:vector  ETV
vector 5402  Network.dyn_peer[22]  lookupStabilitySig:vector  ETV
vector 5403  Network.dyn_peer[22]  lookupTimeSig:vector  ETV
vector 5404  Network.dyn_peer[23]  lookupHopsSig:vector  ETV
vector 5405  Network.dyn_peer[23]  lookupStabilitySig:vector  ETV
vector 5406  Network.dyn_peer[23]  lookupTimeSig:vector  ETV
vector 5347  Network.dyn_peer[4]  lookupHopsSig:vector  ETV
vector 5348  Network.dyn_peer[4]  lookupStabilitySig:vector  ETV
vector 5349  Network.dyn_peer[4]  lookupTimeSig:vector  ETV
vector 5407  Network.dyn_peer[24]  lookupHopsSig:vector  ETV
vector 5408  Network.dyn_peer[24]  lookupStabilitySig:vector  ETV
vector 5409  Network.dyn_peer[24]  lookupTimeSig:vector  ETV
vector 5386  Network.dyn_peer[17]  lookupHopsSig:vector  ETV
vector 5387  Network.dyn_peer[17]  lookupStabilitySig:vector  ETV
vector 5388  Network.dyn_peer[17]  lookupTimeSig:vector  ETV
vector 5392  Network.dyn_peer[19]  lookupHopsSig:vector  ETV
vector 5393  Network.dyn_peer[19]  lookupStabilitySig:vector  ETV
vector 5394  Network.dyn_peer[19]  lookupTimeSig:vector  ETV
vector 5383  Network.dyn_peer[16]  lookupHopsSig:vector  ETV
vector 5384  Network.dyn_peer[16]  lookupStabilitySig:vector  ETV
vector 5385  Network.dyn_peer[16]  lookupTimeSig:vector  ETV
vector 5413  Network.dyn_peer[26]  lookupHopsSig:vector  ETV
vector 5414  Network.dyn_peer[26]  lookupStabilitySig:vector  ETV
vector 5415  Network.dyn_peer[26]  lookupTimeSig:vector  ETV
vector 5356  Network.dyn_peer[7]  lookupHopsSig:vector  ETV
vector 5357  Network.dyn_peer[7]  lookupStabilitySig:vector  ETV
vector 5358  Network.dyn_peer[7]  lookupTimeSig:vector  ETV
vector 5365  Network.dyn_peer[10]  lookupHopsSig:vector  ETV
vector 5366  Network.dyn_peer[10]  lookupStabilitySig:vector  ETV
vector 5367  Network.dyn_peer[10]  lookupTimeSig:vector  ETV
vector 5428  Network.dyn_peer[31]  lookupHopsSig:vector  ETV
vector 5429  Network.dyn_peer[31]  lookupStabilitySig:vector  ETV
vector 5430  Network.dyn_peer[31]  lookupTimeSig:vector  ETV
vector 5410  Network.dyn_peer[25]  lookupHopsSig:vector  ETV
vector 5411  Network.dyn_peer[25]  lookupStabilitySig:vector  ETV
vector 5412  Network.dyn_peer[25]  lookupTimeSig:vector  ETV
vector 5389  Network.dyn_peer[18]  lookupHopsSig:vector  ETV
vector 5390  Network.dyn_peer[18]  lookupStabilitySig:vector  ETV
vector 5391  Network.dyn_peer[18]  lookupTimeSig:vector  ETV
vector 5419  Network.dyn_peer[28]  lookupHopsSig:vector  ETV
vector 5420  Network.dyn_peer[28]  lookupStabilitySig:vector  ETV
vector 5421  Network.dyn_peer[28]  lookupTimeSig:vector  ETV
vector 5422  Network.dyn_peer[29]  lookupHopsSig:vector  ETV
vector 5423  Network.dyn_peer[29]  lookupStabilitySig:vector  ETV
vector 5424  Network.dyn_peer[29]  lookupTimeSig:vector  ETV
vector 5395  Network.dyn_peer[20]  lookupHopsSig:vector  ETV
vector 5396  Network.dyn_peer[20]  lookupStabilitySig:vector  ETV
vector 5397  Network.dyn_peer[20]  lookupTimeSig:vector  ETV
vector 5425  Network.dyn_peer[30]  lookupHopsSig:vector  ETV
vector 5426  Network.dyn_peer[30]  lookupStabilitySig:vector  ETV
vector 5427  Network.dyn_peer[30]  lookupTimeSig:vector  ETV
vector 5416  Network.dyn_peer[27]  lookupHopsSig:vector  ETV
vector 5417  Network.dyn_peer[27]  lookupStabilitySig:vector  ETV
vector 5418  Network.dyn_peer[27]  lookupTimeSig:vector  ETV
5335	28	20.01	0
5335	390	20.61	5
5335	561	20.912674200714	2
5335	871	21.337894690948	3
5335	1261	21.712903655082	9
5335	1650	21.9902	6
5335	1692	22.020273269888	3
5335	2093	22.255465319311	2
5335	2898	22.855465319311	5
5335	3320	23.258799695582	3
5335	4283	24.079338987437	8
5335	4550	24.279338987437	1
5335	5078	24.788422967572	5
5335	5326	25.012739769033	2
5335	6078	25.712739769033	7
5335	6288	25.916907475796	2
5335	6705	26.330025620364	5
5335	6795	26.419843424065	4
5335	7043	26.638545870513	2
5335	7970	27.438545870513	7
5335	8475	27.854639296341	3
5335	9128	28.274685133921	4
5335	9648	28.674685133921	3
5335	10925	29.755920508163	13
5335	11521	30.219345919715	0
5335	12888	31.519345919715	14
5335	13529	32.0388874515	3
5335	14261	32.619472846977	12
5335	14384	32.740246384194	6
5335	14420	32.774558512054	6
5335	14684	32.975937052543	2
5335	14759	33.040100234339	12
5335	14983	33.237935412918	3
5335	15192	33.380523601203	3
5335	15274	33.439488784368	1
5335	16006	34.0533203471	6
5335	16434	34.4533203471	3
5335	16803	34.757300404935	2
5335	17397	35.328626586451	4
5335	17708	35.566178909762	7
5335	17715	35.587764649984	10
5335	18444	36.109525123195	5
5335	18813	36.409525123195	2
5335	19251	36.913038546862	4
5335	19369	37.024448969173	1
5335	19642	37.328012734823	2
5335	19831	37.546729076263	3
5335	20664	38.256829076263	10
5335	21071	38.656829076263	3
5335	21693	39.266291638943	6
5335	22143	39.739870334566	5
5335	23338	40.749970334566	11
5335	23756	41.149970334566	3
5335	24635	41.949993243494	8
5335	24879	42.152425180575	1
5335	25430	42.609168126521	4
5335	25593	42.754242319245	7
5335	25657	42.811150575136	1
5335	26057	43.171164188703	3
5335	26221	43.319205634288	4
5335	26306	43.37320852765	2
5335	26626	43.628099408776	2
5335	26635	43.629846464207	2
5335	27224	44.139946464207	5
5335	28651	45.379814641536	5
5335	29111	45.779814641536	3
5335	30051	46.589914641536	7
5335	30057	46.593681953692	7
5335	30442	46.898090788596	2
5335	30446	46.902225581522	2
5335	30467	46.912325581522	0
5335	30887	47.312325581522	3
5335	32063	48.32034535164	9
5335	32343	48.575922882068	9
5335	32417	48.62180796836	2
5335	32984	49.181534931615	6
5335	33541	49.59397293399	4
5335	33842	49.89397293399	2
5335	34374	50.302918105043	4
5335	35437	51.161950003247	8
5335	36476	52.086890667327	6
5335	37761	53.286890667327	13
5335	38266	53.778233343668	10
5335	38465	53.982381734855	1
5335	38913	54.30056024502	3
5335	39584	54.80056024502	5
5335	40035	55.118356279554	2
5335	40409	55.425797579789	3
5335	40500	55.520650475049	1
5335	41152	56.132017396858	6
5335	41776	56.730085778453	1
5335	41901	56.835769738779	5
5335	42160	57.041844449516	1
5335	43468	58.051944449516	12
5335	44278	58.751944449516	6
5335	45038	59.278897313364	5
5335	45414	59.586775501356	2
5335	46332	60.403950106796	9
5335	46961	61.003950106796	5
5335	47382	61.373226740626	6
5335	48202	61.990312856671	6
5335	49004	62.690312856671	6
5335	49357	63.008800806186	3
5335	49809	63.418562922763	4
5335	50291	63.837888936143	11
5335	50426	63.928561277967	4
5335	51252	64.540199346349	6
5335	52474	65.440199346349	9
5335	53240	66.043198620444	6
5335	53494	66.25369704465	1
5335	53726	66.460314678746	1
5335	54081	66.777934100605	4
5335	54718	67.277934100605	6
5335	55428	67.984412155726	6
5335	55630	68.189608981569	1
5335	56036	68.522049361301	5
5335	56807	69.138373508308	6
5335	57127	69.370284971824	15
5335	57738	69.888838005243	5
5335	58587	70.688838005243	8
5335	59085	71.089865540359	3
5335	59867	71.893208478744	8
5335	59969	71.967184754151	8
5335	60293	72.189583158095	1
5335	60694	72.509146596593	3
5335	61216	73.010341245298	5
5335	61628	73.313931759049	2
5335	62008	73.617986236715	2
5335	62570	74.128115917315	6
5335	62750	74.328115917315	1
5335	63308	74.838247012601	4
5335	64390	75.845111429128	10
5335	65124	76.549853173867	6
5335	65265	76.653517359219	6
5335	65431	76.81587830937	6
5335	66063	77.430450256084	6
5335	66281	77.630450256084	1
5335	66489	77.835972538603	1
5335	67027	78.354928269897	5
5335	67499	78.754928269897	3
5335	67954	79.15855180661	3
5335	68155	79.364484942805	3
5335	68603	79.775482627507	4
5335	68978	80.075482627507	2
5335	69239	80.279764436093	1
5335	69590	80.582414957611	2
5335	70011	80.90301791722	4
5335	70888	81.60301791722	6
5335	71823	82.407705070513	6
5335	72709	83.107705070513	6
5335	73461	83.715730162806	4
5335	73856	84.024201772092	3
5335	73914	84.100924729372	2
5335	74077	84.225764069099	12
5335	74293	84.432567446834	3
5335	74428	84.601231191821	4
5335	74962	85.014275123178	4
5335	75562	85.514275123178	4
5335	76421	86.221639019734	7
5335	76561	86.32331932182	4
5335	76848	86.631227101211	2
5335	77625	87.251200957591	6
5335	77831	87.451200957591	1
5335	77998	87.55938480867	0
5335	78483	87.86948480867	3
5335	79231	88.56948480867	6
5335	79713	88.970129650301	3
5335	79969	89.17399777228	2
5335	80573	89.685795138948	5
5335	81393	90.423055689926	1
5335	82010	90.933155689926	5
5335	82346	91.233155689926	2
5335	82790	91.579700684278	2
5335	83434	92.083801686385	3
5335	83970	92.538478797725	14
5335	84118	92.687550372479	5
5335	84247	92.786028629546	12
5335	84362	92.883701686385	12
5335	84491	93.001765769983	1
5335	85166	93.601765769983	5
5335	85639	94.008923749266	3
5335	86555	94.811014464093	8
5335	86916	95.121833427685	2
5335	87160	95.337885925573	2
5335	87824	96.017768692136	3
5335	88832	96.817768692136	7
5335	89231	97.107191457191	6
5335	89571	97.414076822012	2
5335	89581	97.430498442623	5
5335	89977	97.745234872753	3
5335	90805	98.445234872753	7
5335	91200	98.753222071231	2
5335	92247	99.656075234909	9
5335	92584	99.956175234909	12
5335	92901	100.266275234909	3
5335	93131	100.466275234909	2
5335	93543	100.8827309273	4
5335	93817	101.090938279955	1
5335	94209	101.413174518596	3
5335	94946	102.013174518596	5
5335	95839	102.729909679605	7
5335	96166	103.029909679605	2
5335	96301	103.140009679605	1
5335	96630	103.440009679605	2
5335	96931	103.743467706243	2
5335	97334	104.14484438947	3
5335	98037	104.855432933757	6
5335	98572	105.364213036756	4
5335	99353	105.998881447561	5
5335	100099	106.607442113397	5
5335	100268	106.749691281068	12
5335	100542	106.917104751969	5
5335	100797	107.114883439699	4
5335	100951	107.260243923457	4
5335	100974	107.267859623005	2
5335	101177	107.425893345361	5
5335	101209	107.467785659239	1
5335	101390	107.587593816385	1
5335	101813	107.887593816385	3
5335	102270	108.393933954945	4
5335	102853	108.912618604851	4
5335	103059	109.12106573663	1
5335	103832	109.83275838888	7
5335	105489	111.23275838888	14
5335	106651	112.195618376044	7
5335	107803	113.095618376044	10
5335	108036	113.302354630661	1
5335	108219	113.468718802042	5
5335	108277	113.494703472724	5
5335	109788	114.910550010615	15
5335	110273	115.310550010615	3
5335	111060	115.913626737326	5
5335	112015	116.715917446344	9
5335	112380	117.02554764248	4
5335	112877	117.428172838169	3
5335	112906	117.44097319295	3
5335	113072	117.564732054965	9
5335	113313	117.764832054965	1
5335	113315	117.765262496724	1
5335	113749	118.139728684288	2
5335	114052	118.431768250398	7
5335	114082	118.442766057727	2
5335	114680	118.962068690975	5
5335	115306	119.572436391505	3
5335	115658	119.891235914065	3
5335	116160	120.291235914065	3
5335	116666	120.693687220786	3
5335	117274	121.218586818969	5
5335	117399	121.345294042453	5
5335	117498	121.419727461966	2
5335	117606	121.500109021926	8
5335	117729	121.60202665042	1
5335	117837	121.720596944886	5
5335	117859	121.747414797055	5
5335	118102	121.978960475533	3
5335	118106	121.981283750007	5
5335	118175	122.022308810813	7
5335	118458	122.234436513777	2
5335	119575	123.234436513777	12
5335	119847	123.436204789625	1
5335	120388	123.939592847115	4
5335	120812	124.245546092012	2
5335	120909	124.326171058841	2
5335	120999	124.411800916829	2
5335	121120	124.462790583273	1
5335	121149	124.475073827275	0
5335	122465	125.675073827275	11
5335	123500	126.590438655617	9
5335	123930	126.890438655617	2
5335	124504	127.398243150913	4
5335	124800	127.698595946921	2
5335	125248	128.152844467206	5
5335	125611	128.458915295846	2
5335	125644	128.503856232951	8
5335	126211	128.921804810434	4
5335	126432	129.121804810434	1
5335	126636	129.269368604398	1
5335	128116	130.579679034223	14
5335	129036	131.379679034223	8
5335	129621	131.875158145251	2
5335	130422	132.582883857237	6
5335	130426	132.583044469261	6
5335	131011	133.101439224935	5
5335	131589	133.601439224935	4
5335	132111	134.106667695284	4
5335	132201	134.18122391381	4
5335	133186	135.095889591359	9
5335	133741	135.595889591359	4
5335	134928	136.8011393494	12
5335	135162	137.008429839017	1
5335	135280	137.123427626818	1
5335	135722	137.523427626818	3
5335	135933	137.733042314328	1
5335	136314	138.181641056572	2
5335	136397	138.357874433189	2
5336	28	20.01	1
5336	390	20.61	0.375
5336	561	20.912674200714	0.75
5336	871	21.337894690948	0.625
5336	1261	21.712903655082	-0.125
5336	1650	21.9902	0.25
5336	1692	22.020273269888	0.625
5336	2093	22.255465319311	0.75
5336	2898	22.855465319311	0.375
5336	3320	23.258799695582	0.625
5336	4283	24.079338987437	0
5336	4550	24.279338987437	0.875
5336	5078	24.788422967572	0.375
5336	5326	25.012739769033	0.75
5336	6078	25.712739769033	0.125
5336	6288	25.916907475796	0.75
5336	6705	26.330025620364	0.375
5336	6795	26.419843424065	0.5
5336	7043	26.638545870513	0.75
5336	7970	27.438545870513	0.125
5336	8475	27.854639296341	0.66666665673256
5336	9128	28.274685133921	0.5
5336	9648	28.674685133921	0.625
5336	10925	29.755920508163	-0.625
5336	11521	30.219345919715	1
5336	12888	31.519345919715	-0.75
5336	13529	32.0388874515	0.625
5336	14261	32.619472846977	-0.5
5336	14384	32.740246384194	0.25
5336	14420	32.774558512054	0.25
5336	14684	32.975937052543	0.75
5336	14759	33.040100234339	-0.5
5336	14983	33.237935412918	0.625
5336	15192	33.380523601203	0.625
5336	15274	33.439488784368	0.875
5336	16006	34.0533203471	0.25
5336	16434	34.4533203471	0.625
5336	16803	34.757300404935	0.75
5336	17397	35.328626586451	0.5
5336	17708	35.566178909762	0.125
5336	17715	35.587764649984	-0.25
5336	18444	36.109525123195	0.375
5336	18813	36.409525123195	0.75
5336	19251	36.913038546862	0.5
5336	19369	37.024448969173	0.875
5336	19642	37.328012734823	0.75
5336	19831	37.546729076263	0.625
5336	20664	38.256829076263	-0.25
5336	21071	38.656829076263	0.625
5336	21693	39.266291638943	0.25
5336	22143	39.739870334566	0.375
5336	23338	40.749970334566	-0.375
5336	23756	41.149970334566	0.625
5336	24635	41.949993243494	0
5336	24879	42.152425180575	0.875
5336	25430	42.609168126521	0.5
5336	25593	42.754242319245	0.125
5336	25657	42.811150575136	0.875
5336	26057	43.171164188703	0.625
5336	26221	43.319205634288	0.5
5336	26306	43.37320852765	0.75
5336	26626	43.628099408776	0.75
5336	26635	43.629846464207	0.75
5336	27224	44.139946464207	0.375
5336	28651	45.379814641536	0.375
5336	29111	45.779814641536	0.625
5336	30051	46.589914641536	0.125
5336	30057	46.593681953692	0.125
5336	30442	46.898090788596	0.75
5336	30446	46.902225581522	0.75
5336	30467	46.912325581522	1
5336	30887	47.312325581522	0.625
5336	32063	48.32034535164	-0.125
5336	32343	48.575922882068	-0.125
5336	32417	48.62180796836	0.75
5336	32984	49.181534931615	0.25
5336	33541	49.59397293399	0.5
5336	33842	49.89397293399	0.75
5336	34374	50.302918105043	0.5
5336	35437	51.161950003247	0
5336	36476	52.086890667327	0.25
5336	37761	53.286890667327	-0.625
5336	38266	53.778233343668	-0.25
5336	38465	53.982381734855	0.875
5336	38913	54.30056024502	0.625
5336	39584	54.80056024502	0.375
5336	40035	55.118356279554	0.75
5336	40409	55.425797579789	0.625
5336	40500	55.520650475049	0.875
5336	41152	56.132017396858	0.25
5336	41776	56.730085778453	0.875
5336	41901	56.835769738779	0.375
5336	42160	57.041844449516	0.875
5336	43468	58.051944449516	-0.5
5336	44278	58.751944449516	0.25
5336	45038	59.278897313364	0.375
5336	45414	59.586775501356	0.75
5336	46332	60.403950106796	-0.125
5336	46961	61.003950106796	0.375
5336	47382	61.373226740626	0.25
5336	48202	61.990312856671	0.25
5336	49004	62.690312856671	0.25
5336	49357	63.008800806186	0.625
5336	49809	63.418562922763	0.5
5336	50291	63.837888936143	-0.375
5336	50426	63.928561277967	0.5
5336	51252	64.540199346349	0.25
5336	52474	65.440199346349	-0.125
5336	53240	66.043198620444	0.25
5336	53494	66.25369704465	0.875
5336	53726	66.460314678746	0.875
5336	54081	66.777934100605	0.5
5336	54718	67.277934100605	0.25
5336	55428	67.984412155726	0.25
5336	55630	68.189608981569	0.875
5336	56036	68.522049361301	0.375
5336	56807	69.138373508308	0.25
5336	57127	69.370284971824	-0.875
5336	57738	69.888838005243	0.375
5336	58587	70.688838005243	0
5336	59085	71.089865540359	0.625
5336	59867	71.893208478744	0
5336	59969	71.967184754151	0
5336	60293	72.189583158095	0.875
5336	60694	72.509146596593	0.625
5336	61216	73.010341245298	0.375
5336	61628	73.313931759049	0.75
5336	62008	73.617986236715	0.75
5336	62570	74.128115917315	0.25
5336	62750	74.328115917315	0.875
5336	63308	74.838247012601	0.5
5336	64390	75.845111429128	-0.25
5336	65124	76.549853173867	0.25
5336	65265	76.653517359219	0.25
5336	65431	76.81587830937	0.25
5336	66063	77.430450256084	0.25
5336	66281	77.630450256084	0.875
5336	66489	77.835972538603	0.875
5336	67027	78.354928269897	0.375
5336	67499	78.754928269897	0.625
5336	67954	79.15855180661	0.625
5336	68155	79.364484942805	0.625
5336	68603	79.775482627507	0.5
5336	68978	80.075482627507	0.75
5336	69239	80.279764436093	0.875
5336	69590	80.582414957611	0.75
5336	70011	80.90301791722	0.5
5336	70888	81.60301791722	0.25
5336	71823	82.407705070513	0.25
5336	72709	83.107705070513	0.25
5336	73461	83.715730162806	0.5
5336	73856	84.024201772092	0.625
5336	73914	84.100924729372	0.75
5336	74077	84.225764069099	-0.5
5336	74293	84.432567446834	0.625
5336	74428	84.601231191821	0.5
5336	74962	85.014275123178	0.5
5336	75562	85.514275123178	0.5
5336	76421	86.221639019734	0.125
5336	76561	86.32331932182	0.5
5336	76848	86.631227101211	0.75
5336	77625	87.251200957591	0.25
5336	77831	87.451200957591	0.875
5336	77998	87.55938480867	1
5336	78483	87.86948480867	0.625
5336	79231	88.56948480867	0.25
5336	79713	88.970129650301	0.625
5336	79969	89.17399777228	0.75
5336	80573	89.685795138948	0.375
5336	81393	90.423055689926	0.875
5336	82010	90.933155689926	0.375
5336	82346	91.233155689926	0.75
5336	82790	91.579700684278	0.75
5336	83434	92.083801686385	0.625
5336	83970	92.538478797725	-0.75
5336	84118	92.687550372479	0.375
5336	84247	92.786028629546	-0.5
5336	84362	92.883701686385	-0.5
5336	84491	93.001765769983	0.875
5336	85166	93.601765769983	0.375
5336	85639	94.008923749266	0.625
5336	86555	94.811014464093	0
5336	86916	95.121833427685	0.75
5336	87160	95.337885925573	0.75
5336	87824	96.017768692136	0.625
5336	88832	96.817768692136	0.125
5336	89231	97.107191457191	0.25
5336	89571	97.414076822012	0.75
5336	89581	97.430498442623	0.375
5336	89977	97.745234872753	0.625
5336	90805	98.445234872753	0.125
5336	91200	98.753222071231	0.75
5336	92247	99.656075234909	-0.125
5336	92584	99.956175234909	-0.5
5336	92901	100.266275234909	0.625
5336	93131	100.466275234909	0.75
5336	93543	100.8827309273	0.5
5336	93817	101.090938279955	0.875
5336	94209	101.413174518596	0.625
5336	94946	102.013174518596	0.375
5336	95839	102.729909679605	0.125
5336	96166	103.029909679605	0.75
5336	96301	103.140009679605	0.875
5336	96630	103.440009679605	0.75
5336	96931	103.743467706243	0.75
5336	97334	104.14484438947	0.625
5336	98037	104.855432933757	0.25
5336	98572	105.364213036756	0.5
5336	99353	105.998881447561	0.375
5336	100099	106.607442113397	0.375
5336	100268	106.749691281068	-0.5
5336	100542	106.917104751969	0.375
5336	100797	107.114883439699	0.5
5336	100951	107.260243923457	0.5
5336	100974	107.267859623005	0.75
5336	101177	107.425893345361	0.375
5336	101209	107.467785659239	0.875
5336	101390	107.587593816385	0.875
5336	101813	107.887593816385	0.625
5336	102270	108.393933954945	0.5
5336	102853	108.912618604851	0.5
5336	103059	109.12106573663	0.875
5336	103832	109.83275838888	0.125
5336	105489	111.23275838888	-0.75
5336	106651	112.195618376044	0.125
5336	107803	113.095618376044	-0.25
5336	108036	113.302354630661	0.875
5336	108219	113.468718802042	0.375
5336	108277	113.494703472724	0.375
5336	109788	114.910550010615	-0.875
5336	110273	115.310550010615	0.625
5336	111060	115.913626737326	0.375
5336	112015	116.715917446344	-0.125
5336	112380	117.02554764248	0.5
5336	112877	117.428172838169	0.625
5336	112906	117.44097319295	0.625
5336	113072	117.564732054965	0
5336	113313	117.764832054965	0.875
5336	113315	117.765262496724	0.875
5336	113749	118.139728684288	0.75
5336	114052	118.431768250398	0.125
5336	114082	118.442766057727	0.75
5336	114680	118.962068690975	0.375
5336	115306	119.572436391505	0.625
5336	115658	119.891235914065	0.625
5336	116160	120.291235914065	0.625
5336	116666	120.693687220786	0.625
5336	117274	121.218586818969	0.375
5336	117399	121.345294042453	0.375
5336	117498	121.419727461966	0.75
5336	117606	121.500109021926	0
5336	117729	121.60202665042	0.875
5336	117837	121.720596944886	0.375
5336	117859	121.747414797055	0.375
5336	118102	121.978960475533	0.625
5336	118106	121.981283750007	0.375
5336	118175	122.022308810813	0.125
5336	118458	122.234436513777	0.75
5336	119575	123.234436513777	-0.5
5336	119847	123.436204789625	0.875
5336	120388	123.939592847115	0.5
5336	120812	124.245546092012	0.75
5336	120909	124.326171058841	0.75
5336	120999	124.411800916829	0.75
5336	121120	124.462790583273	0.875
5336	121149	124.475073827275	1
5336	122465	125.675073827275	-0.375
5336	123500	126.590438655617	-0.125
5336	123930	126.890438655617	0.75
5336	124504	127.398243150913	0.5
5336	124800	127.698595946921	0.75
5336	125248	128.152844467206	0.375
5336	125611	128.458915295846	0.75
5336	125644	128.503856232951	0
5336	126211	128.921804810434	0.5
5336	126432	129.121804810434	0.875
5336	126636	129.269368604398	0.875
5336	128116	130.579679034223	-0.75
5336	129036	131.379679034223	0
5336	129621	131.875158145251	0.75
5336	130422	132.582883857237	0.25
5336	130426	132.583044469261	0.25
5336	131011	133.101439224935	0.375
5336	131589	133.601439224935	0.5
5336	132111	134.106667695284	0.5
5336	132201	134.18122391381	0.5
5336	133186	135.095889591359	-0.125
5336	133741	135.595889591359	0.5
5336	134928	136.8011393494	-0.5
5336	135162	137.008429839017	0.875
5336	135280	137.123427626818	0.875
5336	135722	137.523427626818	0.625
5336	135933	137.733042314328	0.875
5336	136314	138.181641056572	0.75
5336	136397	138.357874433189	0.75
5337	28	20.01	0
5337	390	20.61	0.6
5337	561	20.912674200714	0.3
5337	871	21.337894690948	0.4
5337	1261	21.712903655082	0.8
5337	1650	21.9902	0.6
5337	1692	22.020273269888	0.3
5337	2093	22.255465319311	0.2
5337	2898	22.855465319311	0.6
5337	3320	23.258799695582	0.4
5337	4283	24.079338987437	0.8
5337	4550	24.279338987437	0.2
5337	5078	24.788422967572	0.5
5337	5326	25.012739769033	0.2
5337	6078	25.712739769033	0.7
5337	6288	25.916907475796	0.2
5337	6705	26.330025620364	0.6
5337	6795	26.419843424065	0.5
5337	7043	26.638545870513	0.2
5337	7970	27.438545870513	0.8
5337	8475	27.854639296341	0.4
5337	9128	28.274685133921	0.4
5337	9648	28.674685133921	0.4
5337	10925	29.755920508163	1
5337	11521	30.219345919715	0
5337	12888	31.519345919715	1.3
5337	13529	32.0388874515	0.4
5337	14261	32.619472846977	1.1
5337	14384	32.740246384194	0.7
5337	14420	32.774558512054	0.7
5337	14684	32.975937052543	0.2
5337	14759	33.040100234339	1.1
5337	14983	33.237935412918	0.4
5337	15192	33.380523601203	0.4
5337	15274	33.439488784368	0.2
5337	16006	34.0533203471	0.6
5337	16434	34.4533203471	0.4
5337	16803	34.757300404935	0.3
5337	17397	35.328626586451	0.4
5337	17708	35.566178909762	0.8
5337	17715	35.587764649984	1
5337	18444	36.109525123195	0.5
5337	18813	36.409525123195	0.3
5337	19251	36.913038546862	0.5
5337	19369	37.024448969173	0.1
5337	19642	37.328012734823	0.3
5337	19831	37.546729076263	0.4
5337	20664	38.256829076263	0.7
5337	21071	38.656829076263	0.4
5337	21693	39.266291638943	0.6
5337	22143	39.739870334566	0.6
5337	23338	40.749970334566	1
5337	23756	41.149970334566	0.4
5337	24635	41.949993243494	0.8
5337	24879	42.152425180575	0.2
5337	25430	42.609168126521	0.5
5337	25593	42.754242319245	0.6
5337	25657	42.811150575136	0.2
5337	26057	43.171164188703	0.4
5337	26221	43.319205634288	0.5
5337	26306	43.37320852765	0.2
5337	26626	43.628099408776	0.3
5337	26635	43.629846464207	0.3
5337	27224	44.139946464207	0.5
5337	28651	45.379814641536	0.5
5337	29111	45.779814641536	0.4
5337	30051	46.589914641536	0.8
5337	30057	46.593681953692	0.8
5337	30442	46.898090788596	0.3
5337	30446	46.902225581522	0.3
5337	30467	46.912325581522	0
5337	30887	47.312325581522	0.4
5337	32063	48.32034535164	1
5337	32343	48.575922882068	1
5337	32417	48.62180796836	0.3
5337	32984	49.181534931615	0.6
5337	33541	49.59397293399	0.4
5337	33842	49.89397293399	0.3
5337	34374	50.302918105043	0.4
5337	35437	51.161950003247	0.8
5337	36476	52.086890667327	0.6
5337	37761	53.286890667327	1.2
5337	38266	53.778233343668	1
5337	38465	53.982381734855	0.2
5337	38913	54.30056024502	0.3
5337	39584	54.80056024502	0.5
5337	40035	55.118356279554	0.3
5337	40409	55.425797579789	0.3
5337	40500	55.520650475049	0.2
5337	41152	56.132017396858	0.6
5337	41776	56.730085778453	0.2
5337	41901	56.835769738779	0.5
5337	42160	57.041844449516	0.2
5337	43468	58.051944449516	1
5337	44278	58.751944449516	0.7
5337	45038	59.278897313364	0.5
5337	45414	59.586775501356	0.3
5337	46332	60.403950106796	0.8
5337	46961	61.003950106796	0.6
5337	47382	61.373226740626	0.7
5337	48202	61.990312856671	0.6
5337	49004	62.690312856671	0.7
5337	49357	63.008800806186	0.3
5337	49809	63.418562922763	0.4
5337	50291	63.837888936143	1.1
5337	50426	63.928561277967	0.5
5337	51252	64.540199346349	0.6
5337	52474	65.440199346349	0.9
5337	53240	66.043198620444	0.6
5337	53494	66.25369704465	0.2
5337	53726	66.460314678746	0.2
5337	54081	66.777934100605	0.3
5337	54718	67.277934100605	0.5
5337	55428	67.984412155726	0.7
5337	55630	68.189608981569	0.2
5337	56036	68.522049361301	0.5
5337	56807	69.138373508308	0.6
5337	57127	69.370284971824	1.5
5337	57738	69.888838005243	0.5
5337	58587	70.688838005243	0.8
5337	59085	71.089865540359	0.4
5337	59867	71.893208478744	0.8
5337	59969	71.967184754151	0.8
5337	60293	72.189583158095	0.2
5337	60694	72.509146596593	0.3
5337	61216	73.010341245298	0.5
5337	61628	73.313931759049	0.3
5337	62008	73.617986236715	0.3
5337	62570	74.128115917315	0.5
5337	62750	74.328115917315	0.2
5337	63308	74.838247012601	0.5
5337	64390	75.845111429128	1
5337	65124	76.549853173867	0.7
5337	65265	76.653517359219	0.6
5337	65431	76.81587830937	0.7
5337	66063	77.430450256084	0.6
5337	66281	77.630450256084	0.2
5337	66489	77.835972538603	0.2
5337	67027	78.354928269897	0.5
5337	67499	78.754928269897	0.4
5337	67954	79.15855180661	0.4
5337	68155	79.364484942805	0.4
5337	68603	79.775482627507	0.4
5337	68978	80.075482627507	0.3
5337	69239	80.279764436093	0.2
5337	69590	80.582414957611	0.3
5337	70011	80.90301791722	0.3
5337	70888	81.60301791722	0.7
5337	71823	82.407705070513	0.6
5337	72709	83.107705070513	0.7
5337	73461	83.715730162806	0.5
5337	73856	84.024201772092	0.3
5337	73914	84.100924729372	0.3
5337	74077	84.225764069099	1.1
5337	74293	84.432567446834	0.4
5337	74428	84.601231191821	0.5
5337	74962	85.014275123178	0.4
5337	75562	85.514275123178	0.5
5337	76421	86.221639019734	0.7
5337	76561	86.32331932182	0.5
5337	76848	86.631227101211	0.3
5337	77625	87.251200957591	0.6
5337	77831	87.451200957591	0.2
5337	77998	87.55938480867	0.1
5337	78483	87.86948480867	0.3
5337	79231	88.56948480867	0.7
5337	79713	88.970129650301	0.4
5337	79969	89.17399777228	0.2
5337	80573	89.685795138948	0.5
5337	81393	90.423055689926	0.2
5337	82010	90.933155689926	0.5
5337	82346	91.233155689926	0.3