version 2
run Stability-54-20130528-00:53:34-21385
attr configname Stability
attr datetime 20130528-00:53:34
attr experiment Stability
attr inifile omnetpp.ini
attr iterationvars $0=1e1
attr iterationvars2 "$0=1e1, $repetition=4"
attr measurement $0=1e1
attr network Network
attr processid 21385
attr repetition 4
attr replication #4
attr resultdir results
attr runnumber 54
attr seedset 54

vector 5334  Network.churner  inGoingSizeSig:vector  ETV
vector 5265  Network.dyn_peer[9]  lookupHopsSig:vector  ETV
vector 5266  Network.dyn_peer[9]  lookupStabilitySig:vector  ETV
vector 5267  Network.dyn_peer[9]  lookupTimeSig:vector  ETV
vector 5238  Network.dyn_peer[0]  lookupHopsSig:vector  ETV
vector 5239  Network.dyn_peer[0]  lookupStabilitySig:vector  ETV
vector 5240  Network.dyn_peer[0]  lookupTimeSig:vector  ETV
vector 5244  Network.dyn_peer[2]  lookupHopsSig:vector  ETV
vector 5245  Network.dyn_peer[2]  lookupStabilitySig:vector  ETV
vector 5246  Network.dyn_peer[2]  lookupTimeSig:vector  ETV
vector 5253  Network.dyn_peer[5]  lookupHopsSig:vector  ETV
vector 5254  Network.dyn_peer[5]  lookupStabilitySig:vector  ETV
vector 5255  Network.dyn_peer[5]  lookupTimeSig:vector  ETV
vector 5262  Network.dyn_peer[8]  lookupHopsSig:vector  ETV
vector 5263  Network.dyn_peer[8]  lookupStabilitySig:vector  ETV
vector 5264  Network.dyn_peer[8]  lookupTimeSig:vector  ETV
vector 5241  Network.dyn_peer[1]  lookupHopsSig:vector  ETV
vector 5242  Network.dyn_peer[1]  lookupStabilitySig:vector  ETV
vector 5243  Network.dyn_peer[1]  lookupTimeSig:vector  ETV
vector 5250  Network.dyn_peer[4]  lookupHopsSig:vector  ETV
vector 5251  Network.dyn_peer[4]  lookupStabilitySig:vector  ETV
vector 5252  Network.dyn_peer[4]  lookupTimeSig:vector  ETV
vector 5310  Network.dyn_peer[24]  lookupHopsSig:vector  ETV
vector 5311  Network.dyn_peer[24]  lookupStabilitySig:vector  ETV
vector 5312  Network.dyn_peer[24]  lookupTimeSig:vector  ETV
vector 5256  Network.dyn_peer[6]  lookupHopsSig:vector  ETV
vector 5257  Network.dyn_peer[6]  lookupStabilitySig:vector  ETV
vector 5258  Network.dyn_peer[6]  lookupTimeSig:vector  ETV
vector 5259  Network.dyn_peer[7]  lookupHopsSig:vector  ETV
vector 5260  Network.dyn_peer[7]  lookupStabilitySig:vector  ETV
vector 5261  Network.dyn_peer[7]  lookupTimeSig:vector  ETV
vector 5268  Network.dyn_peer[10]  lookupHopsSig:vector  ETV
vector 5269  Network.dyn_peer[10]  lookupStabilitySig:vector  ETV
vector 5270  Network.dyn_peer[10]  lookupTimeSig:vector  ETV
vector 5271  Network.dyn_peer[11]  lookupHopsSig:vector  ETV
vector 5272  Network.dyn_peer[11]  lookupStabilitySig:vector  ETV
vector 5273  Network.dyn_peer[11]  lookupTimeSig:vector  ETV
vector 5301  Network.dyn_peer[21]  lookupHopsSig:vector  ETV
vector 5302  Network.dyn_peer[21]  lookupStabilitySig:vector  ETV
vector 5303  Network.dyn_peer[21]  lookupTimeSig:vector  ETV
vector 5274  Network.dyn_peer[12]  lookupHopsSig:vector  ETV
vector 5275  Network.dyn_peer[12]  lookupStabilitySig:vector  ETV
vector 5276  Network.dyn_peer[12]  lookupTimeSig:vector  ETV
vector 5304  Network.dyn_peer[22]  lookupHopsSig:vector  ETV
vector 5305  Network.dyn_peer[22]  lookupStabilitySig:vector  ETV
vector 5306  Network.dyn_peer[22]  lookupTimeSig:vector  ETV
vector 5277  Network.dyn_peer[13]  lookupHopsSig:vector  ETV
vector 5278  Network.dyn_peer[13]  lookupStabilitySig:vector  ETV
vector 5279  Network.dyn_peer[13]  lookupTimeSig:vector  ETV
vector 5280  Network.dyn_peer[14]  lookupHopsSig:vector  ETV
vector 5281  Network.dyn_peer[14]  lookupStabilitySig:vector  ETV
vector 5282  Network.dyn_peer[14]  lookupTimeSig:vector  ETV
vector 5283  Network.dyn_peer[15]  lookupHopsSig:vector  ETV
vector 5284  Network.dyn_peer[15]  lookupStabilitySig:vector  ETV
vector 5285  Network.dyn_peer[15]  lookupTimeSig:vector  ETV
vector 5286  Network.dyn_peer[16]  lookupHopsSig:vector  ETV
vector 5287  Network.dyn_peer[16]  lookupStabilitySig:vector  ETV
vector 5288  Network.dyn_peer[16]  lookupTimeSig:vector  ETV
vector 5289  Network.dyn_peer[17]  lookupHopsSig:vector  ETV
vector 5290  Network.dyn_peer[17]  lookupStabilitySig:vector  ETV
vector 5291  Network.dyn_peer[17]  lookupTimeSig:vector  ETV
vector 5295  Network.dyn_peer[19]  lookupHopsSig:vector  ETV
vector 5296  Network.dyn_peer[19]  lookupStabilitySig:vector  ETV
vector 5297  Network.dyn_peer[19]  lookupTimeSig:vector  ETV
vector 5325  Network.dyn_peer[29]  lookupHopsSig:vector  ETV
vector 5326  Network.dyn_peer[29]  lookupStabilitySig:vector  ETV
vector 5327  Network.dyn_peer[29]  lookupTimeSig:vector  ETV
vector 5247  Network.dyn_peer[3]  lookupHopsSig:vector  ETV
vector 5248  Network.dyn_peer[3]  lookupStabilitySig:vector  ETV
vector 5249  Network.dyn_peer[3]  lookupTimeSig:vector  ETV
vector 5313  Network.dyn_peer[25]  lookupHopsSig:vector  ETV
vector 5314  Network.dyn_peer[25]  lookupStabilitySig:vector  ETV
vector 5315  Network.dyn_peer[25]  lookupTimeSig:vector  ETV
vector 5316  Network.dyn_peer[26]  lookupHopsSig:vector  ETV
vector 5317  Network.dyn_peer[26]  lookupStabilitySig:vector  ETV
vector 5318  Network.dyn_peer[26]  lookupTimeSig:vector  ETV
vector 5292  Network.dyn_peer[18]  lookupHopsSig:vector  ETV
vector 5293  Network.dyn_peer[18]  lookupStabilitySig:vector  ETV
vector 5294  Network.dyn_peer[18]  lookupTimeSig:vector  ETV
vector 5298  Network.dyn_peer[20]  lookupHopsSig:vector  ETV
vector 5299  Network.dyn_peer[20]  lookupStabilitySig:vector  ETV
vector 5300  Network.dyn_peer[20]  lookupTimeSig:vector  ETV
vector 5331  Network.dyn_peer[31]  lookupHopsSig:vector  ETV
vector 5332  Network.dyn_peer[31]  lookupStabilitySig:vector  ETV
vector 5333  Network.dyn_peer[31]  lookupTimeSig:vector  ETV
vector 5319  Network.dyn_peer[27]  lookupHopsSig:vector  ETV
vector 5320  Network.dyn_peer[27]  lookupStabilitySig:vector  ETV
vector 5321  Network.dyn_peer[27]  lookupTimeSig:vector  ETV
vector 5307  Network.dyn_peer[23]  lookupHopsSig:vector  ETV
vector 5308  Network.dyn_peer[23]  lookupStabilitySig:vector  ETV
vector 5309  Network.dyn_peer[23]  lookupTimeSig:vector  ETV
vector 5328  Network.dyn_peer[30]  lookupHopsSig:vector  ETV
vector 5329  Network.dyn_peer[30]  lookupStabilitySig:vector  ETV
vector 5330  Network.dyn_peer[30]  lookupTimeSig:vector  ETV
vector 5322  Network.dyn_peer[28]  lookupHopsSig:vector  ETV
vector 5323  Network.dyn_peer[28]  lookupStabilitySig:vector  ETV
vector 5324  Network.dyn_peer[28]  lookupTimeSig:vector  ETV
5238	63	20.11	1
5238	386	20.61	4
5238	649	21.017827487117	3
5238	984	21.418181332989	3
5238	1110	21.529983589325	2
5238	1653	21.942758705433	4
5238	1916	22.142758705433	1
5238	2315	22.444909745835	2
5238	2498	22.549689944741	1
5238	2742	22.705248876752	2
5238	2993	22.918570073812	1
5238	3485	23.331663735235	4
5238	3887	23.631663735235	2
5238	4363	24.039280204126	3
5238	5812	25.255932826861	12
5238	7101	26.355932826861	10
5238	7386	26.56583914701	1
5238	7577	26.771368463543	1
5238	8186	27.285117851931	6
5238	9060	28.185117851931	9
5238	9378	28.51712921916	2
5238	9697	28.819007219962	2
5238	10372	29.437012578571	6
5238	10776	29.737012578571	2
5238	12362	31.04160889664	13
5238	12593	31.249442113316	1
5238	13073	31.651580597869	3
5238	13992	32.351307047486	7
5238	13997	32.352931471987	6
5238	14226	32.560103709715	1
5238	14228	32.560123879432	1
5238	14646	32.870223879432	3
5238	15134	33.193382512172	0
5238	15594	33.570223879432	6
5238	16154	34.080323879432	5
5238	16937	34.780323879432	7
5238	17279	35.086586345117	2
5238	17559	35.296686345117	2
5238	17747	35.496686345117	1
5238	19259	36.802628022971	13
5238	20543	37.813234911314	10
5238	20954	38.134371876815	1
5238	21207	38.3453549029	1
5238	21876	38.8554549029	5
5238	22802	39.662630373217	5
5238	23195	39.974439675501	3
5238	23571	40.274439675501	2
5238	23678	40.383506277482	0
5238	23808	40.506016386726	0
5238	25461	42.006016386726	14
5238	25715	42.208319762937	2
5238	25963	42.418877781947	2
5238	26718	43.018877781947	5
5238	26846	43.128512599238	5
5238	27144	43.34661122767	2
5238	27544	43.64661122767	2
5238	28165	44.148133317376	4
5238	28423	44.37068770403	1
5238	28701	44.58078770403	2
5238	29199	44.98078770403	3
5238	29510	45.184688215869	2
5238	29785	45.392517189635	1
5238	30374	45.89831679451	4
5238	30399	45.909385439983	1
5238	30470	45.99498383897	8
5238	30750	46.208282744424	2
5238	31473	46.808282744424	5
5238	32008	47.215636548607	3
5238	32447	47.533292802755	3
5238	33881	48.733292802755	13
5238	34666	49.344400891513	6
5238	34723	49.385102800011	6
5238	35064	49.648438693185	2
5238	35721	50.165990339921	5
5238	36171	50.565990339921	3
5238	36444	50.776102066088	1
5238	36556	50.884650456284	1
5238	36931	51.184503838521	1
5238	37073	51.278261989763	4
5238	37320	51.493239166718	6
5238	37555	51.688024318852	4
5238	39413	53.099858372745	16
5238	40158	53.899858372745	7
5238	40852	54.614430664987	6
5238	41228	54.916373656361	2
5238	41520	55.120297141165	2
5238	42150	55.622106826171	5
5238	42323	55.776991698209	3
5238	42924	56.224603753807	5
5238	43343	56.534703753807	4
5238	43571	56.734703753807	1
5238	43945	57.044803753807	3
5238	44518	57.544803753807	5
5238	44799	57.747857409391	2
5238	45046	57.954235587715	1
5238	45346	58.212255224541	1
5238	45586	58.423650391571	1
5238	45639	58.468902965994	1
5238	45724	58.526504504588	1
5238	45802	58.62186776345	10
5238	46329	59.036849145061	5
5238	47496	60.036849145061	10
5238	48013	60.445113271894	3
5238	48391	60.758638591922	4
5238	48475	60.852192935657	3
5238	48632	60.968259231031	1
5238	49265	61.468992294463	4
5238	49823	61.856621273808	11
5238	49826	61.857617210643	11
5238	50281	62.173273099971	3
5238	50713	62.573273099971	5
5238	50969	62.775817462378	1
5238	51328	63.077069462323	2
5238	51847	63.487169462323	4
5238	52185	63.787169462323	2
5238	52439	63.995085211146	2
5238	52815	64.319056599583	3
5238	53832	65.131046923336	8
5238	55162	66.431046923336	13
5238	55459	66.748523460302	2
5238	55498	66.775344732101	2
5238	55774	67.005477453464	0
5238	56147	67.376304713629	7
5238	56366	67.511241610933	4
5238	56600	67.714621539893	1
5238	56625	67.751878314692	10
5238	56651	67.768571789519	0
5238	58000	68.868571789519	10
5238	59175	69.770615644464	10
5238	59437	69.961652871895	9
5238	59807	70.272577839623	5
5238	60626	70.987595146397	8
5238	61217	71.496022516303	4
5238	61764	71.916230694619	3
5238	62022	72.116230694619	1
5238	62957	72.826330694619	8
5238	63357	73.231056458842	3
5238	65303	74.641156458842	15
5238	65798	75.141156458842	4
5238	66331	75.644409994644	4
5238	66571	75.888293362399	5
5238	66929	76.198393362399	3
5238	69030	77.998393362399	18
5238	69417	78.302350074864	2
5238	70407	79.073449828396	8
5238	70708	79.29123750711	2
5238	71020	79.49123750711	1
5238	71310	79.743825042716	2
5238	72359	80.665204999127	9
5238	72748	81.056652765007	1
5238	73701	81.866752765007	9
5238	74187	82.266752765007	3
5238	75296	83.180856650702	3
5238	76476	84.080856650702	9
5238	76823	84.389588931617	2
5238	77149	84.690916794263	2
5238	77324	84.841388134241	2
5238	77362	84.881310546777	2
5238	77374	84.899232531917	1
5238	77795	85.210889859276	3
5238	78187	85.510889859276	2
5238	78695	85.919074152439	3
5238	79009	86.229018792678	2
5238	79195	86.398347872088	2
5238	79240	86.471261524177	5
5238	79453	86.674837369267	1
5238	79620	86.872587237902	1
5238	80644	87.884321574786	10
5238	81351	88.484321574786	5
5238	81946	88.994421574786	5
5238	82918	89.894421574786	8
5238	83125	90.10131623188	1
5238	83881	90.71141623188	8
5238	84661	91.51141623188	7
5238	85084	91.910260126436	1
5238	85414	92.214802561147	2
5238	85416	92.216308303716	6
5238	86817	93.326408303716	13
5238	87435	93.826408303716	4
5238	87762	94.134086699151	2
5238	87794	94.174760603934	4
5238	88308	94.594734129876	4
5238	88839	95.094734129876	4
5238	89174	95.397204805419	2
5238	89802	96.007304805419	6
5238	90017	96.207304805419	1
5238	90577	96.708473620998	4
5238	90602	96.730686884413	4
5238	90995	97.017376848863	2
5238	91176	97.135713259268	3
5238	91633	97.450000941457	3
5238	92697	98.350000941457	9
5238	93029	98.650729134801	2
5238	93682	99.155566539225	4
5238	94796	100.057418346317	8
5238	95253	100.3641344056	2
5238	95622	100.668370176833	2
5238	96006	100.973188261927	2
5238	96261	101.185901251304	3
5238	96929	101.705347135075	5
5238	97714	102.505347135075	7
5238	97972	102.709752051938	1
5238	98302	103.009819182241	2
5238	98704	103.351491964299	3
5238	98915	103.522225727144	4
5238	98971	103.555625455773	1
5238	98975	103.556277889581	1
5238	98987	103.559809946368	1
5238	99333	103.849540712831	2
5238	99957	104.368693768004	5
5238	100189	104.568693768004	2
5238	100233	104.582839991576	0
5238	100519	104.882839991576	2
5238	101091	105.392663268372	4
5238	101391	105.664366753194	5
5238	101461	105.701905550995	2
5238	101465	105.705055763698	2
5238	101595	105.819375345953	4
5238	102143	106.236510882495	4
5238	102566	106.627580973205	1
5238	102691	106.737680973205	1
5238	103370	107.337680973205	6
5238	103730	107.638018700984	2
5238	103847	107.747954398375	0
5238	104508	108.351919243815	5
5238	105379	109.068534112741	7
5238	106177	109.768534112741	6
5238	106403	109.978374374886	1
5238	106914	110.385604240747	4
5238	107188	110.593374550081	1
5238	108083	111.391726944541	3
5238	108226	111.501011395112	9
5238	108459	111.718865135989	2
5238	109257	112.418865135989	6
5238	109698	112.819476199677	3
5238	110176	113.229012654917	3
5238	110972	113.914555853033	10
5238	111022	113.93874615265	6
5238	111089	114.007705581432	6
5238	111364	114.245659153095	2
5238	111695	114.512859621443	5
5238	111701	114.516963678098	5
5238	111708	114.523027084054	5
5238	112417	115.135402567409	7
5238	113291	115.935402567409	7
5238	113664	116.241469780557	2
5238	114750	117.059144109381	9
5238	115448	117.559144109381	4
5238	115932	117.964839040891	3
5238	115961	118.003039645751	2
5238	116200	118.201469866074	3
5238	116656	118.619550791018	5
5238	117411	119.224371221122	6
5238	117814	119.534471221122	3
5238	118514	120.134471221122	5
5238	119030	120.574151809796	4
5238	119213	120.743119391249	5
5238	119431	120.951724966014	1
5238	119452	120.976640744691	3
5238	119482	120.988543470174	1
5238	119518	121.009326469169	0
5238	119992	121.509326469169	4
5238	120389	121.912632216992	3
5238	121046	122.424595860158	5
5238	121273	122.624595860158	1
5238	121787	122.93781997132	1
5238	123261	124.23781997132	12
5238	123517	124.442333229986	2
5238	123569	124.509665376524	1
5238	123727	124.647593802672	1
5238	123805	124.711395292189	1
5238	125359	125.932415097458	13
5238	126241	126.837835044753	8
5238	126508	127.047935044753	3
5238	127091	127.547935044753	5
5238	127805	128.14962808315	7
5238	128294	128.554592679953	11
5238	128305	128.558453913417	3
5238	128989	129.16160705927	5
5238	128997	129.16743754558	5
5238	129178	129.334551796553	5
5238	129424	129.570157549704	3
5238	129426	129.571318713375	3
5238	130145	130.185293318113	6
5238	130796	130.785293318113	5
5238	131862	131.600871881193	7
5238	132420	132.100871881193	4
5238	133164	132.702076372043	5
5238	133450	132.917176242074	4
5238	133828	133.232507903067	2
5238	133902	133.303636625651	5
5238	134112	133.440397329275	1
5238	134602	133.858769111028	4
5238	134811	134.058769111028	1
5238	135169	134.46581555718	3
5238	135333	134.675162497273	1
5239	63	20.11	0.875
5239	386	20.61	0.5
5239	649	21.017827487117	0.625
5239	984	21.418181332989	0.625
5239	1110	21.529983589325	0.75
5239	1653	21.942758705433	0.5
5239	1916	22.142758705433	0.875
5239	2315	22.444909745835	0.75
5239	2498	22.549689944741	0.875
5239	2742	22.705248876752	0.75
5239	2993	22.918570073812	0.875
5239	3485	23.331663735235	0.5
5239	3887	23.631663735235	0.75
5239	4363	24.039280204126	0.625
5239	5812	25.255932826861	-0.5
5239	7101	26.355932826861	-0.25
5239	7386	26.56583914701	0.875
5239	7577	26.771368463543	0.875
5239	8186	27.285117851931	0.25
5239	9060	28.185117851931	-0.125
5239	9378	28.51712921916	0.75
5239	9697	28.819007219962	0.75
5239	10372	29.437012578571	0.33333331346512
5239	10776	29.737012578571	0.75
5239	12362	31.04160889664	-0.625
5239	12593	31.249442113316	0.875
5239	13073	31.651580597869	0.625
5239	13992	32.351307047486	0.125
5239	13997	32.352931471987	0.25
5239	14226	32.560103709715	0.875
5239	14228	32.560123879432	0.875
5239	14646	32.870223879432	0.625
5239	15134	33.193382512172	1
5239	15594	33.570223879432	0.25
5239	16154	34.080323879432	0.375
5239	16937	34.780323879432	0.125
5239	17279	35.086586345117	0.75
5239	17559	35.296686345117	0.75
5239	17747	35.496686345117	0.875
5239	19259	36.802628022971	-0.625
5239	20543	37.813234911314	-0.25
5239	20954	38.134371876815	0.875
5239	21207	38.3453549029	0.875
5239	21876	38.8554549029	0.375
5239	22802	39.662630373217	0.375
5239	23195	39.974439675501	0.625
5239	23571	40.274439675501	0.75
5239	23678	40.383506277482	1
5239	23808	40.506016386726	1
5239	25461	42.006016386726	-0.75
5239	25715	42.208319762937	0.75
5239	25963	42.418877781947	0.75
5239	26718	43.018877781947	0.375
5239	26846	43.128512599238	0.375
5239	27144	43.34661122767	0.75
5239	27544	43.64661122767	0.75
5239	28165	44.148133317376	0.5
5239	28423	44.37068770403	0.875
5239	28701	44.58078770403	0.75
5239	29199	44.98078770403	0.625
5239	29510	45.184688215869	0.75
5239	29785	45.392517189635	0.875
5239	30374	45.89831679451	0.5
5239	30399	45.909385439983	0.875
5239	30470	45.99498383897	0
5239	30750	46.208282744424	0.75
5239	31473	46.808282744424	0.375
5239	32008	47.215636548607	0.625
5239	32447	47.533292802755	0.625
5239	33881	48.733292802755	-0.625
5239	34666	49.344400891513	0.25
5239	34723	49.385102800011	0.25
5239	35064	49.648438693185	0.75
5239	35721	50.165990339921	0.375
5239	36171	50.565990339921	0.625
5239	36444	50.776102066088	0.875
5239	36556	50.884650456284	0.875
5239	36931	51.184503838521	0.875
5239	37073	51.278261989763	0.5
5239	37320	51.493239166718	0.25
5239	37555	51.688024318852	0.5
5239	39413	53.099858372745	-1
5239	40158	53.899858372745	0.125
5239	40852	54.614430664987	0.25
5239	41228	54.916373656361	0.75
5239	41520	55.120297141165	0.75
5239	42150	55.622106826171	0.375
5239	42323	55.776991698209	0.625
5239	42924	56.224603753807	0.375
5239	43343	56.534703753807	0.5
5239	43571	56.734703753807	0.875
5239	43945	57.044803753807	0.625
5239	44518	57.544803753807	0.375
5239	44799	57.747857409391	0.75
5239	45046	57.954235587715	0.875
5239	45346	58.212255224541	0.875
5239	45586	58.423650391571	0.875
5239	45639	58.468902965994	0.875
5239	45724	58.526504504588	0.875
5239	45802	58.62186776345	-0.25
5239	46329	59.036849145061	0.375
5239	47496	60.036849145061	-0.25
5239	48013	60.445113271894	0.625
5239	48391	60.758638591922	0.5
5239	48475	60.852192935657	0.625
5239	48632	60.968259231031	0.875
5239	49265	61.468992294463	0.5
5239	49823	61.856621273808	-0.375
5239	49826	61.857617210643	-0.375
5239	50281	62.173273099971	0.625
5239	50713	62.573273099971	0.375
5239	50969	62.775817462378	0.875
5239	51328	63.077069462323	0.75
5239	51847	63.487169462323	0.5
5239	52185	63.787169462323	0.75
5239	52439	63.995085211146	0.75
5239	52815	64.319056599583	0.625
5239	53832	65.131046923336	0
5239	55162	66.431046923336	-0.625
5239	55459	66.748523460302	0.75
5239	55498	66.775344732101	0.75
5239	55774	67.005477453464	1
5239	56147	67.376304713629	0.125
5239	56366	67.511241610933	0.5
5239	56600	67.714621539893	0.875
5239	56625	67.751878314692	-0.25
5239	56651	67.768571789519	1
5239	58000	68.868571789519	-0.25
5239	59175	69.770615644464	-0.25
5239	59437	69.961652871895	-0.125
5239	59807	70.272577839623	0.375
5239	60626	70.987595146397	0
5239	61217	71.496022516303	0.5
5239	61764	71.916230694619	0.625
5239	62022	72.116230694619	0.875
5239	62957	72.826330694619	0
5239	63357	73.231056458842	0.625
5239	65303	74.641156458842	-0.875
5239	65798	75.141156458842	0.5
5239	66331	75.644409994644	0.5
5239	66571	75.888293362399	0.375
5239	66929	76.198393362399	0.625
5239	69030	77.998393362399	-1.25
5239	69417	78.302350074864	0.75
5239	70407	79.073449828396	0
5239	70708	79.29123750711	0.75
5239	71020	79.49123750711	0.875
5239	71310	79.743825042716	0.75
5239	72359	80.665204999127	-0.125
5239	72748	81.056652765007	0.875
5239	73701	81.866752765007	-0.125
5239	74187	82.266752765007	0.625
5239	75296	83.180856650702	0.625
5239	76476	84.080856650702	-0.125
5239	76823	84.389588931617	0.75
5239	77149	84.690916794263	0.75
5239	77324	84.841388134241	0.75
5239	77362	84.881310546777	0.75
5239	77374	84.899232531917	0.875
5239	77795	85.210889859276	0.625
5239	78187	85.510889859276	0.75
5239	78695	85.919074152439	0.625
5239	79009	86.229018792678	0.75
5239	79195	86.398347872088	0.75
5239	79240	86.471261524177	0.375
5239	79453	86.674837369267	0.875
5239	79620	86.872587237902	0.875
5239	80644	87.884321574786	-0.25
5239	81351	88.484321574786	0.375
5239	81946	88.994421574786	0.375
5239	82918	89.894421574786	0
5239	83125	90.10131623188	0.875
5239	83881	90.71141623188	0
5239	84661	91.51141623188	0.125
5239	85084	91.910260126436	0.875
5239	85414	92.214802561147	0.75
5239	85416	92.216308303716	0.25
5239	86817	93.326408303716	-0.625
5239	87435	93.826408303716	0.5
5239	87762	94.134086699151	0.75
5239	87794	94.174760603934	0.5
5239	88308	94.594734129876	0.5
5239	88839	95.094734129876	0.5
5239	89174	95.397204805419	0.75
5239	89802	96.007304805419	0.25
5239	90017	96.207304805419	0.875
5239	90577	96.708473620998	0.5
5239	90602	96.730686884413	0.5
5239	90995	97.017376848863	0.75
5239	91176	97.135713259268	0.625
5239	91633	97.450000941457	0.625
5239	92697	98.350000941457	-0.125
5239	93029	98.650729134801	0.75
5239	93682	99.155566539225	0.5
5239	94796	100.057418346317	0
5239	95253	100.3641344056	0.75
5239	95622	100.668370176833	0.75
5239	96006	100.973188261927	0.75
5239	96261	101.185901251304	0.625
5239	96929	101.705347135075	0.375
5239	97714	102.505347135075	0.125
5239	97972	102.709752051938	0.875
5239	98302	103.009819182241	0.75
5239	98704	103.351491964299	0.625
5239	98915	103.522225727144	0.5
5239	98971	103.555625455773	0.875
5239	98975	103.556277889581	0.875
5239	98987	103.559809946368	0.875
5239	99333	103.849540712831	0.75
5239	99957	104.368693768004	0.375
5239	100189	104.568693768004	0.75
5239	100233	104.582839991576	1
5239	100519	104.882839991576	0.75
5239	101091	105.392663268372	0.5
5239	101391	105.664366753194	0.375
5239	101461	105.701905550995	0.75
5239	101465	105.705055763698	0.75
5239	101595	105.819375345953	0.5
5239	102143	106.236510882495	0.5
5239	102566	106.627580973205	0.875
5239	102691	106.737680973205	0.875
5239	103370	107.337680973205	0.25
5239	103730	107.638018700984	0.75
5239	103847	107.747954398375	1
5239	104508	108.351919243815	0.375
5239	105379	109.068534112741	0.125
5239	106177	109.768534112741	0.25
5239	106403	109.978374374886	0.875
5239	106914	110.385604240747	0.5
5239	107188	110.593374550081	0.875
5239	108083	111.391726944541	0.625
5239	108226	111.501011395112	-0.125
5239	108459	111.718865135989	0.75
5239	109257	112.418865135989	0.25
5239	109698	112.819476199677	0.625
5239	110176	113.229012654917	0.625
5239	110972	113.914555853033	-0.25
5239	111022	113.93874615265	0.25
5239	111089	114.007705581432	0.25
5239	111364	114.245659153095	0.75
5239	111695	114.512859621443	0.375
5239	111701	114.516963678098	0.375
5239	111708	114.523027084054	0.375
5239	112417	115.135402567409	0.125
5239	113291	115.935402567409	0.125
5239	113664	116.241469780557	0.75
5239	114750	117.059144109381	-0.125
5239	115448	117.559144109381	0.5
5239	115932	117.964839040891	0.625
5239	115961	118.003039645751	0.77777777612209
5239	116200	118.201469866074	0.625
5239	116656	118.619550791018	0.375
5239	117411	119.224371221122	0.25
5239	117814	119.534471221122	0.625
5239	118514	120.134471221122	0.375
5239	119030	120.574151809796	0.5
5239	119213	120.743119391249	0.375
5239	119431	120.951724966014	0.875
5239	119452	120.976640744691	0.625
5239	119482	120.988543470174	0.875
5239	119518	121.009326469169	1
5239	119992	121.509326469169	0.5
5239	120389	121.912632216992	0.625
5239	121046	122.424595860158	0.375
5239	121273	122.624595860158	0.875
5239	121787	122.93781997132	0.875
5239	123261	124.23781997132	-0.5
5239	123517	124.442333229986	0.75
5239	123569	124.509665376524	0.875
5239	123727	124.647593802672	0.875
5239	123805	124.711395292189	0.875
5239	125359	125.932415097458	-0.625
5239	126241	126.837835044753	0
5239	126508	127.047935044753	0.625
5239	127091	127.547935044753	0.375
5239	127805	128.14962808315	0.125
5239	128294	128.554592679953	-0.375
5239	128305	128.558453913417	0.625
5239	128989	129.16160705927	0.375
5239	128997	129.16743754558	0.375
5239	129178	129.334551796553	0.375
5239	129424	129.570157549704	0.625
5239	129426	129.571318713375	0.625
5239	130145	130.185293318113	0.25
5239	130796	130.785293318113	0.375
5239	131862	131.600871881193	0.125
5239	132420	132.100871881193	0.5
5239	133164	132.702076372043	0.375
5239	133450	132.917176242074	0.5
5239	133828	133.232507903067	0.75
5239	133902	133.303636625651	0.375
5239	134112	133.440397329275	0.875
5239	134602	133.858769111028	0.5
5239	134811	134.058769111028	0.875
5239	135169	134.46581555718	0.625
5239	135333	134.675162497273	0.875
5240	63	20.11	0.1
5240	386	20.61	0.5
5240	649	21.017827487117	0.4
5240	984	21.418181332989	0.4
5240	1110	21.529983589325	0.3
5240	1653	21.942758705433	0.4
5240	1916	22.142758705433	0.2
5240	2315	22.444909745835	0.3
5240	2498	22.549689944741	0.1
5240	2742	22.705248876752	0.2
5240	2993	22.918570073812	0.2
5240	3485	23.331663735235	0.4
5240	3887	23.631663735235	0.3
5240	4363	24.039280204126	0.4
5240	5812	25.255932826861	1.2
5240	7101	26.355932826861	1.1
5240	7386	26.56583914701	0.2
5240	7577	26.771368463543	0.2
5240	8186	27.285117851931	0.5
5240	9060	28.185117851931	0.9
5240	9378	28.51712921916	0.3
5240	9697	28.819007219962	0.3
5240	10372	29.437012578571	0.6
5240	10776	29.737012578571	0.3
5240	12362	31.04160889664	1.3
5240	12593	31.249442113316	0.2
5240	13073	31.651580597869	0.4
5240	13992	32.351307047486	0.7
5240	13997	32.352931471987	0.7
5240	14226	32.560103709715	0.2
5240	14228	32.560123879432	0.2
5240	14646	32.870223879432	0.3
5240	15134	33.193382512172	0.1
5240	15594	33.570223879432	0.7
5240	16154	34.080323879432	0.5
5240	16937	34.780323879432	0.7
5240	17279	35.086586345117	0.3
5240	17559	35.296686345117	0.2
5240	17747	35.496686345117	0.2
5240	19259	36.802628022971	1.3
5240	20543	37.813234911314	1
5240	20954	38.134371876815	0.2
5240	21207	38.3453549029	0.2
5240	21876	38.8554549029	0.5
5240	22802	39.662630373217	0.6
5240	23195	39.974439675501	0.3
5240	23571	40.274439675501	0.3
5240	23678	40.383506277482	0.1
5240	23808	40.506016386726	0
5240	25461	42.006016386726	1.5
5240	25715	42.208319762937	0.2
5240	25963	42.418877781947	0.2
5240	26718	43.018877781947	0.6
5240	26846	43.128512599238	0.5
5240	27144	43.34661122767	0.2
5240	27544	43.64661122767	0.3
5240	28165	44.148133317376	0.5
5240	28423	44.37068770403	0.2
5240	28701	44.58078770403	0.2
5240	29199	44.98078770403	0.4
5240	29510	45.184688215869	0.2
5240	29785	45.392517189635	0.2
5240	30374	45.89831679451	0.5
5240	30399	45.909385439983	0.2
5240	30470	45.99498383897	0.9
5240	30750	46.208282744424	0.2
5240	31473	46.808282744424	0.6
5240	32008	47.215636548607	0.4
5240	32447	47.533292802755	0.3
5240	33881	48.733292802755	1.2
5240	34666	49.344400891513	0.6
5240	34723	49.385102800011	0.6
5240	35064	49.648438693185	0.3
5240	35721	50.165990339921	0.5
5240	36171	50.565990339921	0.4
5240	36444	50.776102066088	0.2
5240	36556	50.884650456284	0.2
5240	36931	51.184503838521	0.2
5240	37073	51.278261989763	0.5
5240	37320	51.493239166718	0.6
5240	37555	51.688024318852	0.5
5240	39413	53.099858372745	1.4
5240	40158	53.899858372745	0.8
5240	40852	54.614430664987	0.7
5240	41228	54.916373656361	0.3
5240	41520	55.120297141165	0.2
5240	42150	55.622106826171	0.5
5240	42323	55.776991698209	0.4
5240	42924	56.224603753807	0.6
5240	43343	56.534703753807	0.3
5240	43571	56.734703753807	0.2
5240	43945	57.044803753807	0.3
5240	44518	57.544803753807	0.5
5240	44799	57.747857409391	0.2
5240	45046	57.954235587715	0.2
5240	45346	58.212255224541	0.2
5240	45586	58.423650391571	0.2
5240	45639	58.468902965994	0.2
5240	45724	58.526504504588	0.1
5240	45802	58.62186776345	1
5240	46329	59.036849145061	0.4
5240	47496	60.036849145061	1
5240	48013	60.445113271894	0.4
5240	48391	60.758638591922	0.5
5240	48475	60.852192935657	0.4
5240	48632	60.968259231031	0.2
5240	49265	61.468992294463	0.5
5240	49823	61.856621273808	1
5240	49826	61.857617210643	1
5240	50281	62.173273099971	0.3
5240	50713	62.573273099971	0.4
5240	50969	62.775817462378	0.2
5240	51328	63.077069462323	0.3
5240	51847	63.487169462323	0.4
5240	52185	63.787169462323	0.3
5240	52439	63.995085211146	0.2
5240	52815	64.319056599583	0.4
5240	53832	65.131046923336	0.8
5240	55162	66.431046923336	1.3
5240	55459	66.748523460302	0.3
5240	55498	66.775344732101	0.3
5240	55774	67.005477453464	0.1
5240	56147	67.376304713629	0.6
5240	56366	67.511241610933	0.5
5240	56600	67.714621539893	0.2
5240	56625	67.751878314692	1
5240	56651	67.768571789519	0
5240	58000	68.868571789519	1.1
5240	59175	69.770615644464	0.9
5240	59437	69.961652871895	1
5240	59807	70.272577839623	0.5
5240	60626	70.987595146397	0.7
5240	61217	71.496022516303	0.5
5240	61764	71.916230694619	0.3
5240	62022	72.116230694619	0.2
5240	62957	72.826330694619	0.7
5240	63357	73.231056458842	0.4
5240	65303	74.641156458842	1.4
5240	65798	75.141156458842	0.5
5240	66331	75.644409994644	0.5
5240	66571	75.888293362399	0.6
5240	66929	76.198393362399	0.3
5240	69030	77.998393362399	1.8
5240	69417	78.302350074864	0.3
5240	70407	79.073449828396	0.8
5240	70708	79.29123750711	0.2
5240	71020	79.49123750711	0.2
5240	71310	79.743825042716	0.3
5240	72359	80.665204999127	0.8
5240	72748	81.056652765007	0.2
5240	73701	81.866752765007	0.8
5240	74187	82.266752765007	0.4
5240	75296	83.180856650702	0.3
5240	76476	84.080856650702	0.9
5240	76823	84.389588931617	0.3
5240	77149	84.690916794263	0.3
5240	77324	84.841388134241	0.3
5240	77362	84.881310546777	0.3
5240	77374	84.899232531917	0.2
5240	77795	85.210889859276	0.3
5240	78187	85.510889859276	0.3
5240	78695	85.919074152439	0.4
5240	79009	86.229018792678	0.3
5240	79195	86.398347872088	0.3
5240	79240	86.471261524177	0.6
5240	79453	86.674837369267	0.2
5240	79620	86.872587237902	0.2
5240	80644	87.884321574786	1