version 2
run Stability-82-20130528-00:55:37-21385
attr configname Stability
attr datetime 20130528-00:55:37
attr experiment Stability
attr inifile omnetpp.ini
attr iterationvars $0=1e-2
attr iterationvars2 "$0=1e-2, $repetition=2"
attr measurement $0=1e-2
attr network Network
attr processid 21385
attr repetition 2
attr replication #2
attr resultdir results
attr runnumber 82
attr seedset 82

vector 8050  Network.churner  inGoingSizeSig:vector  ETV
vector 7981  Network.dyn_peer[9]  lookupHopsSig:vector  ETV
vector 7982  Network.dyn_peer[9]  lookupStabilitySig:vector  ETV
vector 7983  Network.dyn_peer[9]  lookupTimeSig:vector  ETV
vector 8032  Network.dyn_peer[26]  lookupHopsSig:vector  ETV
vector 8033  Network.dyn_peer[26]  lookupStabilitySig:vector  ETV
vector 8034  Network.dyn_peer[26]  lookupTimeSig:vector  ETV
vector 7954  Network.dyn_peer[0]  lookupHopsSig:vector  ETV
vector 7955  Network.dyn_peer[0]  lookupStabilitySig:vector  ETV
vector 7956  Network.dyn_peer[0]  lookupTimeSig:vector  ETV
vector 7963  Network.dyn_peer[3]  lookupHopsSig:vector  ETV
vector 7964  Network.dyn_peer[3]  lookupStabilitySig:vector  ETV
vector 7965  Network.dyn_peer[3]  lookupTimeSig:vector  ETV
vector 7966  Network.dyn_peer[4]  lookupHopsSig:vector  ETV
vector 7967  Network.dyn_peer[4]  lookupStabilitySig:vector  ETV
vector 7968  Network.dyn_peer[4]  lookupTimeSig:vector  ETV
vector 7984  Network.dyn_peer[10]  lookupHopsSig:vector  ETV
vector 7985  Network.dyn_peer[10]  lookupStabilitySig:vector  ETV
vector 7986  Network.dyn_peer[10]  lookupTimeSig:vector  ETV
vector 7990  Network.dyn_peer[12]  lookupHopsSig:vector  ETV
vector 7991  Network.dyn_peer[12]  lookupStabilitySig:vector  ETV
vector 7992  Network.dyn_peer[12]  lookupTimeSig:vector  ETV
vector 7996  Network.dyn_peer[14]  lookupHopsSig:vector  ETV
vector 7997  Network.dyn_peer[14]  lookupStabilitySig:vector  ETV
vector 7998  Network.dyn_peer[14]  lookupTimeSig:vector  ETV
vector 8002  Network.dyn_peer[16]  lookupHopsSig:vector  ETV
vector 8003  Network.dyn_peer[16]  lookupStabilitySig:vector  ETV
vector 8004  Network.dyn_peer[16]  lookupTimeSig:vector  ETV
vector 8005  Network.dyn_peer[17]  lookupHopsSig:vector  ETV
vector 8006  Network.dyn_peer[17]  lookupStabilitySig:vector  ETV
vector 8007  Network.dyn_peer[17]  lookupTimeSig:vector  ETV
vector 8017  Network.dyn_peer[21]  lookupHopsSig:vector  ETV
vector 8018  Network.dyn_peer[21]  lookupStabilitySig:vector  ETV
vector 8019  Network.dyn_peer[21]  lookupTimeSig:vector  ETV
vector 8023  Network.dyn_peer[23]  lookupHopsSig:vector  ETV
vector 8024  Network.dyn_peer[23]  lookupStabilitySig:vector  ETV
vector 8025  Network.dyn_peer[23]  lookupTimeSig:vector  ETV
vector 8026  Network.dyn_peer[24]  lookupHopsSig:vector  ETV
vector 8027  Network.dyn_peer[24]  lookupStabilitySig:vector  ETV
vector 8028  Network.dyn_peer[24]  lookupTimeSig:vector  ETV
vector 8044  Network.dyn_peer[30]  lookupHopsSig:vector  ETV
vector 8045  Network.dyn_peer[30]  lookupStabilitySig:vector  ETV
vector 8046  Network.dyn_peer[30]  lookupTimeSig:vector  ETV
vector 8047  Network.dyn_peer[31]  lookupHopsSig:vector  ETV
vector 8048  Network.dyn_peer[31]  lookupStabilitySig:vector  ETV
vector 8049  Network.dyn_peer[31]  lookupTimeSig:vector  ETV
vector 7957  Network.dyn_peer[1]  lookupHopsSig:vector  ETV
vector 7958  Network.dyn_peer[1]  lookupStabilitySig:vector  ETV
vector 7959  Network.dyn_peer[1]  lookupTimeSig:vector  ETV
vector 7993  Network.dyn_peer[13]  lookupHopsSig:vector  ETV
vector 7994  Network.dyn_peer[13]  lookupStabilitySig:vector  ETV
vector 7995  Network.dyn_peer[13]  lookupTimeSig:vector  ETV
vector 7999  Network.dyn_peer[15]  lookupHopsSig:vector  ETV
vector 8000  Network.dyn_peer[15]  lookupStabilitySig:vector  ETV
vector 8001  Network.dyn_peer[15]  lookupTimeSig:vector  ETV
vector 8011  Network.dyn_peer[19]  lookupHopsSig:vector  ETV
vector 8012  Network.dyn_peer[19]  lookupStabilitySig:vector  ETV
vector 8013  Network.dyn_peer[19]  lookupTimeSig:vector  ETV
vector 8020  Network.dyn_peer[22]  lookupHopsSig:vector  ETV
vector 8021  Network.dyn_peer[22]  lookupStabilitySig:vector  ETV
vector 8022  Network.dyn_peer[22]  lookupTimeSig:vector  ETV
vector 8038  Network.dyn_peer[28]  lookupHopsSig:vector  ETV
vector 8039  Network.dyn_peer[28]  lookupStabilitySig:vector  ETV
vector 8040  Network.dyn_peer[28]  lookupTimeSig:vector  ETV
vector 7960  Network.dyn_peer[2]  lookupHopsSig:vector  ETV
vector 7961  Network.dyn_peer[2]  lookupStabilitySig:vector  ETV
vector 7962  Network.dyn_peer[2]  lookupTimeSig:vector  ETV
vector 7969  Network.dyn_peer[5]  lookupHopsSig:vector  ETV
vector 7970  Network.dyn_peer[5]  lookupStabilitySig:vector  ETV
vector 7971  Network.dyn_peer[5]  lookupTimeSig:vector  ETV
vector 7978  Network.dyn_peer[8]  lookupHopsSig:vector  ETV
vector 7979  Network.dyn_peer[8]  lookupStabilitySig:vector  ETV
vector 7980  Network.dyn_peer[8]  lookupTimeSig:vector  ETV
vector 8008  Network.dyn_peer[18]  lookupHopsSig:vector  ETV
vector 8009  Network.dyn_peer[18]  lookupStabilitySig:vector  ETV
vector 8010  Network.dyn_peer[18]  lookupTimeSig:vector  ETV
vector 8014  Network.dyn_peer[20]  lookupHopsSig:vector  ETV
vector 8015  Network.dyn_peer[20]  lookupStabilitySig:vector  ETV
vector 8016  Network.dyn_peer[20]  lookupTimeSig:vector  ETV
vector 8029  Network.dyn_peer[25]  lookupHopsSig:vector  ETV
vector 8030  Network.dyn_peer[25]  lookupStabilitySig:vector  ETV
vector 8031  Network.dyn_peer[25]  lookupTimeSig:vector  ETV
vector 8041  Network.dyn_peer[29]  lookupHopsSig:vector  ETV
vector 8042  Network.dyn_peer[29]  lookupStabilitySig:vector  ETV
vector 8043  Network.dyn_peer[29]  lookupTimeSig:vector  ETV
vector 7972  Network.dyn_peer[6]  lookupHopsSig:vector  ETV
vector 7973  Network.dyn_peer[6]  lookupStabilitySig:vector  ETV
vector 7974  Network.dyn_peer[6]  lookupTimeSig:vector  ETV
vector 7975  Network.dyn_peer[7]  lookupHopsSig:vector  ETV
vector 7976  Network.dyn_peer[7]  lookupStabilitySig:vector  ETV
vector 7977  Network.dyn_peer[7]  lookupTimeSig:vector  ETV
vector 8035  Network.dyn_peer[27]  lookupHopsSig:vector  ETV
vector 8036  Network.dyn_peer[27]  lookupStabilitySig:vector  ETV
vector 8037  Network.dyn_peer[27]  lookupTimeSig:vector  ETV
vector 7987  Network.dyn_peer[11]  lookupHopsSig:vector  ETV
vector 7988  Network.dyn_peer[11]  lookupStabilitySig:vector  ETV
vector 7989  Network.dyn_peer[11]  lookupTimeSig:vector  ETV
7954	132	20.10001	1
7954	463	20.60001	4
7954	1066	21.310422634078	5
7954	1451	21.612286155669	6
7954	1464	21.614882437981	2
7954	1704	21.814992437981	2
7954	2469	22.414992437981	6
7954	2826	22.739657456468	2
7954	3546	23.468259904909	7
7954	4044	23.879505197091	3
7954	4582	24.286996415341	4
7954	4939	24.586996415341	2
7954	5284	24.794701463462	2
7954	5571	25.033518111818	3
7954	5849	25.233690430375	1
7954	5932	25.256603030847	1
7954	6568	25.757545937787	5
7954	6853	25.957545937787	1
7954	7414	26.381746045191	3
7954	7999	26.851060420931	2
7954	8610	27.356485940063	5
7954	8761	27.45830880086	3
7954	8960	27.565210839985	2
7954	9183	27.755571865399	2
7954	9206	27.762427607176	2
7954	9307	27.80737441885	16
7954	9350	27.866445953119	3
7954	9764	28.167242056268	3
7954	10165	28.477723385579	3
7954	10596	28.78193161269	2
7954	11696	29.589384774336	9
7954	12791	30.489384774336	8
7954	14025	31.476472712109	6
7954	14061	31.493627086031	10
7954	14302	31.683515403937	1
7954	14427	31.803150533736	2
7954	14620	32.004502561423	1
7954	14654	32.008850095873	1
7954	14676	32.011468036766	0
7954	15018	32.324434730414	3
7954	15170	32.489908544151	1
7954	15294	32.590018544151	1
7954	15585	32.890018544151	2
7954	16286	33.497779181998	5
7954	16954	34.11616512685	5
7954	17496	34.554222925942	2
7954	18941	35.662108970823	11
7954	18945	35.662869749598	11
7954	19180	35.865308181334	1
7954	19187	35.871635214621	1
7954	19770	36.398509222306	5
7954	20328	36.8733516738	9
7954	20330	36.874322704533	9
7954	21009	37.476512097762	6
7954	21306	37.776512097762	2
7954	21816	38.193672198761	3
7954	22040	38.393873663885	1
7954	22507	38.693983663885	3
7954	22852	38.993983663885	2
7954	23200	39.294457615121	2
7954	23686	39.703599857153	3
7954	24227	40.108297676826	4
7954	24306	40.187264252654	2
7954	25517	41.194466662842	11
7954	25725	41.394466662842	2
7954	26197	41.897661866182	4
7954	26766	42.400024353458	4
7954	27211	42.77382903145	4
7954	27257	42.806300555648	3
7954	29020	44.210227286475	15
7954	29774	44.813165755036	6
7954	30018	45.016804757054	1
7954	30284	45.225973001296	2
7954	30652	45.53432263732	2
7954	31093	45.93702557168	3
7954	31331	46.146205948763	2
7954	31552	46.342876552278	4
7954	31782	46.55500549425	3
7954	31996	46.764669765936	2
7954	32944	47.59981002031	2
7954	33132	47.764669765936	9
7954	33149	47.765495706025	0
7954	33409	47.971353855376	1
7954	34705	49.146782466703	8
7954	34933	49.446782466703	2
7954	35355	49.852104410348	3
7954	35679	50.155797890476	2
7954	36534	50.95832509753	7
7954	37180	51.463735172158	4
7954	37501	51.695701764603	3
7954	37793	51.89764694744	2
7954	38599	52.49764694744	5
7954	38749	52.603794514678	1
7954	39011	52.803904514678	2
7954	39369	53.103904514678	2
7954	39473	53.204014514678	1
7954	40030	53.604014514678	3
7954	40355	53.843202263031	1
7954	40603	54.047989048329	1
7954	41577	54.953445491856	9
7954	41976	55.253445491856	2
7954	42703	55.856321332999	6
7954	43087	56.160351871598	2
7954	43181	56.222292140382	2
7954	43454	56.424503237793	1
7954	44209	57.036118120042	5
7954	44258	57.068646030485	8
7954	45105	57.773137295356	7
7954	45553	58.173137295356	3
7954	45976	58.4752647309	2
7954	47245	59.782852460464	14
7954	48253	60.582852460464	7
7954	48955	61.086842931345	4
7954	49601	61.687651486218	5
7954	49905	61.894209497199	2
7954	50996	62.794209497199	9
7954	51663	63.439156680305	4
7954	51711	63.507766753756	6
7954	51868	63.610795905292	2
7954	52069	63.810795905292	1
7954	52328	64.014042032572	1
7954	52724	64.323585668581	4
7954	53448	64.930504766987	6
7954	53946	65.430504766987	4
7954	54076	65.540385449115	1
7954	54458	65.940385449115	4
7954	54773	66.245862289816	2
7954	55598	66.954119766091	7
7954	56017	67.362738328496	3
7954	56285	67.571723533568	2
7954	56734	67.971723533568	3
7954	57328	68.467357051602	1
7954	57602	68.668220581136	1
7954	57935	68.878042289397	3
7954	58462	69.378042289397	4
7954	59129	69.979064368937	5
7954	59540	70.283181247376	2
7954	59918	70.575086490541	7
7954	60765	71.175196490541	7
7954	61517	71.775196490541	5
7954	61951	72.135196153382	1
7954	62775	72.735196153382	6
7954	63385	73.345110557174	5
7954	63706	73.648802567528	2
7954	64061	73.95085725447	2
7954	65244	74.960421682964	11
7954	65823	75.462390894701	5
7954	66076	75.662390894701	1
7954	66354	75.871940917304	1
7954	66883	76.27766187955	4
7954	66912	76.32441710752	4
7954	67363	76.632615296683	3
7954	67624	76.832615296683	1
7954	68420	77.639440710989	7
7954	68655	77.843921978287	2
7954	69009	78.243921978287	3
7954	69429	78.644052158666	4
7954	70476	79.444052158666	7
7954	71052	79.949322406302	4
7954	71413	80.351299694748	5
7954	71609	80.551299694748	1
7954	72001	80.856844799832	2
7954	72833	81.565627318052	7
7954	73288	81.965627318052	3
7954	73880	82.570430048021	6
7954	74584	83.179027780489	5
7954	75126	83.590216707473	4
7954	75857	84.177856451417	9
7954	76132	84.391313165747	7
7954	76467	84.595739842799	2
7954	76702	84.795739842799	1
7954	76914	84.998059772305	1
7954	77319	85.306044989561	2
7954	77374	85.331076445747	2
7954	78023	85.838187952256	5
7954	78673	86.338187952256	4
7954	79055	86.638870394586	3
7954	79436	86.9448120895	2
7954	79693	87.219958827582	9
7954	80138	87.629383566177	4
7954	80350	87.829383566177	1
7954	80729	88.230817299454	3
7954	81057	88.531889099829	2
7954	81439	88.833838982089	3
7954	81640	89.042385068145	1
7954	82122	89.443031150136	4
7954	82856	90.048988135632	6
7954	83208	90.35223285173	2
7954	83624	90.753699698512	3
7954	83650	90.762787520561	4
7954	84144	91.169959892602	4
7954	85013	91.876169977764	7
7954	85402	92.183658986355	2
7954	85423	92.186727793212	2
7954	85700	92.386837793212	2
7954	86138	92.786837793212	3
7954	87140	93.493938452071	6
7954	87429	93.702377716135	1
7954	87652	93.906136725416	1
7954	87873	94.115452513379	1
7954	88078	94.318707917938	1
7954	88662	94.821867699488	5
7954	89417	95.421867699488	5
7954	89992	95.901956316116	4
7954	90499	96.302066316116	4
7954	90911	96.613930064451	2
7954	91365	97.013930064451	3
7954	92499	98.021885116165	10
7954	92552	98.038462100464	8
7954	93703	99.04121347215	11
7954	94953	99.93408735556	4
7954	95210	100.13408735556	1
7954	95846	100.641016359086	4
7954	96606	101.346422944263	7
7954	97049	101.755630412998	3
7954	97214	101.848368722037	1
7954	97233	101.855270217319	0
7954	98374	102.699270664084	2
7954	98617	102.899270664084	1
7954	99539	103.699510369506	7
7954	100067	104.20851209387	5
7954	100564	104.60851209387	3
7954	101223	105.131563262565	4
7954	101288	105.210460014681	6
7954	101491	105.359180597915	4
7954	101602	105.435848716589	3
7954	101877	105.636633907904	1
7954	101971	105.735619428698	7
7954	102876	106.538093462715	8
7954	103562	107.138093462715	5
7954	104094	107.540550616645	4
7954	104632	107.943390921186	3
7954	104654	107.945799669065	9
7954	104673	107.948665736427	3
7954	105189	108.347829726039	3
7954	105445	108.548898899285	5
7954	105450	108.549475313401	5
7954	106195	109.251966326311	7
7954	106577	109.551966326311	2
7954	107168	110.15371511172	5
7954	107829	110.759106303934	5
7954	108491	111.359106303934	5
7954	108717	111.565216045205	1
7954	109152	111.971510498011	3
7954	109686	112.478665306737	4
7954	109983	112.773105497722	7
7954	110451	113.181093410075	4
7954	111087	113.688231336281	3
7954	111257	113.781093410075	7
7954	111874	114.188143210452	5
7954	112326	114.588143210452	3
7954	112556	114.798907274916	1
7954	113136	115.305475587959	5
7954	113578	115.705475587959	4
7954	114726	116.813200381193	11
7954	115155	117.216628820888	3
7954	115244	117.304598461013	2
7954	115269	117.313585006134	4
7954	115708	117.715299854081	3
7954	115805	117.807005547739	4
7954	115848	117.823911376615	5
7954	116286	118.224772731737	4
7954	116979	118.824772731737	5
7954	117186	119.033843745399	1
7954	117425	119.238783987037	2
7954	117706	119.538783987037	2
7954	118303	120.039810417518	4
7954	118333	120.048144389316	4
7954	118576	120.249278483526	2
7954	119176	120.749278483526	4
7954	119498	121.053055753633	2
7954	119934	121.46183722163	3
7954	119961	121.466608972114	3
7954	120359	121.77037945306	3
7954	120369	121.771817256626	3
7954	120614	121.976888784187	1
7954	120625	121.981740949476	1
7954	120673	122.05900420473	1
7954	120697	122.06610623329	1
7954	120859	122.190986940353	1
7954	120930	122.265297114568	7
7954	121958	123.173541678745	9
7954	122898	124.079477960363	9
7954	123243	124.382208514884	2
7954	123542	124.626940298978	4
7954	124078	125.028645435335	4
7954	124763	125.628645435335	5
7954	125117	125.930393126577	3
7954	125791	126.435517426228	4
7954	126011	126.623603689972	9
7954	126191	126.743944464653	3
7954	126880	127.344054464653	7
7954	128460	128.644054464653	14
7954	128819	128.892524366974	1
7954	129156	129.157548434716	5
7954	129488	129.508596457549	5
7954	129762	129.759162392108	5
7954	130026	129.96661278953	1
7954	130091	130.013853025972	5
7954	130097	130.015596623171	2
7954	130618	130.416444198289	5
7954	131297	130.916444198289	4
7954	131570	131.12452631806	1
7954	131964	131.396710746991	3
7954	131995	131.42924897642	3
7954	132521	131.809379428142	4
7954	132889	132.105648822947	5
7954	132895	132.116288762985	5
7954	132905	132.119623197138	3
7954	132952	132.135593596958	6
7954	132989	132.157724126428	6
7954	134941	133.659134023078	16
7954	135741	134.459134023078	7
7954	135989	134.767648858034	2
7954	136123	134.970619019187	1
7955	132	20.10001	0.875
7955	463	20.60001	0.5
7955	1066	21.310422634078	0.375
7955	1451	21.612286155669	0.25
7955	1464	21.614882437981	0.75
7955	1704	21.814992437981	0.75
7955	2469	22.414992437981	0.33333331346512
7955	2826	22.739657456468	0.75
7955	3546	23.468259904909	0.125
7955	4044	23.879505197091	0.625
7955	4582	24.286996415341	0.5
7955	4939	24.586996415341	0.75
7955	5284	24.794701463462	0.75
7955	5571	25.033518111818	0.625
7955	5849	25.233690430375	0.875
7955	5932	25.256603030847	0.875
7955	6568	25.757545937787	0.375
7955	6853	25.957545937787	0.875
7955	7414	26.381746045191	0.625
7955	7999	26.851060420931	0.75
7955	8610	27.356485940063	0.375
7955	8761	27.45830880086	0.625
7955	8960	27.565210839985	0.75
7955	9183	27.755571865399	0.75
7955	9206	27.762427607176	0.75
7955	9307	27.80737441885	-1
7955	9350	27.866445953119	0.625
7955	9764	28.167242056268	0.625
7955	10165	28.477723385579	0.625
7955	10596	28.78193161269	0.75
7955	11696	29.589384774336	-0.125
7955	12791	30.489384774336	0
7955	14025	31.476472712109	0.25
7955	14061	31.493627086031	-0.25
7955	14302	31.683515403937	0.875
7955	14427	31.803150533736	0.75
7955	14620	32.004502561423	0.875
7955	14654	32.008850095873	0.875
7955	14676	32.011468036766	1
7955	15018	32.324434730414	0.625
7955	15170	32.489908544151	0.875
7955	15294	32.590018544151	0.875
7955	15585	32.890018544151	0.75
7955	16286	33.497779181998	0.375
7955	16954	34.11616512685	0.375
7955	17496	34.554222925942	0.75
7955	18941	35.662108970823	-0.375
7955	18945	35.662869749598	-0.375
7955	19180	35.865308181334	0.875
7955	19187	35.871635214621	0.875
7955	19770	36.398509222306	0.375
7955	20328	36.8733516738	-0.125
7955	20330	36.874322704533	-0.125
7955	21009	37.476512097762	0.25
7955	21306	37.776512097762	0.75
7955	21816	38.193672198761	0.625
7955	22040	38.393873663885	0.875
7955	22507	38.693983663885	0.625
7955	22852	38.993983663885	0.75
7955	23200	39.294457615121	0.75
7955	23686	39.703599857153	0.625
7955	24227	40.108297676826	0.5
7955	24306	40.187264252654	0.75
7955	25517	41.194466662842	-0.375
7955	25725	41.394466662842	0.75
7955	26197	41.897661866182	0.5
7955	26766	42.400024353458	0.5
7955	27211	42.77382903145	0.5
7955	27257	42.806300555648	0.625
7955	29020	44.210227286475	-0.875
7955	29774	44.813165755036	0.25
7955	30018	45.016804757054	0.875
7955	30284	45.225973001296	0.75
7955	30652	45.53432263732	0.75
7955	31093	45.93702557168	0.625
7955	31331	46.146205948763	0.75
7955	31552	46.342876552278	0.5
7955	31782	46.55500549425	0.625
7955	31996	46.764669765936	0.75
7955	32944	47.59981002031	0.75
7955	33132	47.764669765936	-0.125
7955	33149	47.765495706025	1
7955	33409	47.971353855376	0.875
7955	34705	49.146782466703	0
7955	34933	49.446782466703	0.75
7955	35355	49.852104410348	0.625
7955	35679	50.155797890476	0.75
7955	36534	50.95832509753	0.125
7955	37180	51.463735172158	0.5
7955	37501	51.695701764603	0.625
7955	37793	51.89764694744	0.75
7955	38599	52.49764694744	0.375
7955	38749	52.603794514678	0.875
7955	39011	52.803904514678	0.75
7955	39369	53.103904514678	0.75
7955	39473	53.204014514678	0.875
7955	40030	53.604014514678	0.625
7955	40355	53.843202263031	0.875
7955	40603	54.047989048329	0.875
7955	41577	54.953445491856	-0.125
7955	41976	55.253445491856	0.75
7955	42703	55.856321332999	0.25
7955	43087	56.160351871598	0.75
7955	43181	56.222292140382	0.75
7955	43454	56.424503237793	0.875
7955	44209	57.036118120042	0.375
7955	44258	57.068646030485	0
7955	45105	57.773137295356	0.125
7955	45553	58.173137295356	0.625
7955	45976	58.4752647309	0.75
7955	47245	59.782852460464	-0.75
7955	48253	60.582852460464	0.125
7955	48955	61.086842931345	0.5
7955	49601	61.687651486218	0.375
7955	49905	61.894209497199	0.75
7955	50996	62.794209497199	-0.125
7955	51663	63.439156680305	0.5
7955	51711	63.507766753756	0.25
7955	51868	63.610795905292	0.75
7955	52069	63.810795905292	0.875
7955	52328	64.014042032572	0.875
7955	52724	64.323585668581	0.5
7955	53448	64.930504766987	0.25
7955	53946	65.430504766987	0.5
7955	54076	65.540385449115	0.875
7955	54458	65.940385449115	0.5
7955	54773	66.245862289816	0.75
7955	55598	66.954119766091	0.125
7955	56017	67.362738328496	0.625
7955	56285	67.571723533568	0.75
7955	56734	67.971723533568	0.625
7955	57328	68.467357051602	0.875
7955	57602	68.668220581136	0.875
7955	57935	68.878042289397	0.625
7955	58462	69.378042289397	0.5
7955	59129	69.979064368937	0.375
7955	59540	70.283181247376	0.75
7955	59918	70.575086490541	0.125
7955	60765	71.175196490541	0.125
7955	61517	71.775196490541	0.375
7955	61951	72.135196153382	0.875
7955	62775	72.735196153382	0.25
7955	63385	73.345110557174	0.375
7955	63706	73.648802567528	0.75
7955	64061	73.95085725447	0.75
7955	65244	74.960421682964	-0.375
7955	65823	75.462390894701	0.375
7955	66076	75.662390894701	0.875
7955	66354	75.871940917304	0.875
7955	66883	76.27766187955	0.5
7955	66912	76.32441710752	0.5
7955	67363	76.632615296683	0.625
7955	67624	76.832615296683	0.875
7955	68420	77.639440710989	0.125
7955	68655	77.843921978287	0.75
7955	69009	78.243921978287	0.625
7955	69429	78.644052158666	0.5
7955	70476	79.444052158666	0.125
7955	71052	79.949322406302	0.5
7955	71413	80.351299694748	0.375
7955	71609	80.551299694748	0.875
7955	72001	80.856844799832	0.75
7955	72833	81.565627318052	0.125
7955	73288	81.965627318052	0.625
7955	73880	82.570430048021	0.25
7955	74584	83.179027780489	0.375
7955	75126	83.590216707473	0.5
7955	75857	84.177856451417	-0.125
7955	76132	84.391313165747	0.125
7955	76467	84.595739842799	0.75
7955	76702	84.795739842799	0.875
7955	76914	84.998059772305	0.875
7955	77319	85.306044989561	0.75
7955	77374	85.331076445747	0.75
7955	78023	85.838187952256	0.375
7955	78673	86.338187952256	0.5
7955	79055	86.638870394586	0.625
7955	79436	86.9448120895	0.75
7955	79693	87.219958827582	-0.125
7955	80138	87.629383566177	0.5
7955	80350	87.829383566177	0.875
7955	80729	88.230817299454	0.625
7955	81057	88.531889099829	0.75
7955	81439	88.833838982089	0.625
7955	81640	89.042385068145	0.875
7955	82122	89.443031150136	0.5
7955	82856	90.048988135632	0.25
7955	83208	90.35223285173	0.75
7955	83624	90.753699698512	0.625
7955	83650	90.762787520561	0.5
7955	84144	91.169959892602	0.5
7955	85013	91.876169977764	0.125
7955	85402	92.183658986355	0.75
7955	85423	92.186727793212	0.75
7955	85700	92.386837793212	0.75
7955	86138	92.786837793212	0.66666665673256
7955	87140	93.493938452071	0.33333331346512
7955	87429	93.702377716135	0.875
7955	87652	93.906136725416	0.875
7955	87873	94.115452513379	0.875
7955	88078	94.318707917938	0.875
7955	88662	94.821867699488	0.375
7955	89417	95.421867699488	0.375
7955	89992	95.901956316116	0.5
7955	90499	96.302066316116	0.5
7955	90911	96.613930064451	0.75
7955	91365	97.013930064451	0.625
7955	92499	98.021885116165	-0.25
7955	92552	98.038462100464	0
7955	93703	99.04121347215	-0.375
7955	94953	99.93408735556	0.5
7955	95210	100.13408735556	0.875
7955	95846	100.641016359086	0.5
7955	96606	101.346422944263	0.125
7955	97049	101.755630412998	0.625
7955	97214	101.848368722037	0.875
7955	97233	101.855270217319	1
7955	98374	102.699270664084	0.75
7955	98617	102.899270664084	0.875
7955	99539	103.699510369506	0.125
7955	100067	104.20851209387	0.375
7955	100564	104.60851209387	0.625
7955	101223	105.131563262565	0.5
7955	101288	105.210460014681	0.25
7955	101491	105.359180597915	0.5
7955	101602	105.435848716589	0.625
7955	101877	105.636633907904	0.875
7955	101971	105.735619428698	0.125
7955	102876	106.538093462715	0
7955	103562	107.138093462715	0.375
7955	104094	107.540550616645	0.5
7955	104632	107.943390921186	0.625
7955	104654	107.945799669065	-0.125
7955	104673	107.948665736427	0.625
7955	105189	108.347829726039	0.625
7955	105445	108.548898899285	0.375
7955	105450	108.549475313401	0.375
7955	106195	109.251966326311	0.125
7955	106577	109.551966326311	0.75
7955	107168	110.15371511172	0.375
7955	107829	110.759106303934	0.375
7955	108491	111.359106303934	0.375
7955	108717	111.565216045205	0.875
7955	109152	111.971510498011	0.625
7955	109686	112.478665306737	0.5
7955	109983	112.773105497722	0.125
7955	110451	113.181093410075	0.5
7955	111087	113.688231336281	0.625
7955	111257	113.781093410075	0.125
7955	111874	114.188143210452	0.375
7955	112326	114.588143210452	0.625
7955	112556	114.798907274916	0.875
7955	113136	115.305475587959	0.375
7955	113578	115.705475587959	0.5
7955	114726	116.813200381193	-0.375
7955	115155	117.216628820888	0.625
7955	115244	117.304598461013	0.75
7955	115269	117.313585006134	0.5
7955	115708	117.715299854081	0.625
7955	115805	117.807005547739	0.5
7955	115848	117.823911376615	0.375
7955	116286	118.224772731737	0.5
7955	116979	118.824772731737	0.375
7955	117186	119.033843745399	0.875
7955	117425	119.238783987037	0.75
7955	117706	119.538783987037	0.75
7955	118303	120.039810417518	0.5
7955	118333	120.048144389316	0.5
7955	118576	120.249278483526	0.75
7955	119176	120.749278483526	0.5
7955	119498	121.053055753633	0.75
7955	119934	121.46183722163	0.625
7955	119961	121.466608972114	0.625
7955	120359	121.77037945306	0.625
7955	120369	121.771817256626	0.625
7955	120614	121.976888784187	0.875
7955	120625	121.981740949476	0.875
7955	120673	122.05900420473	0.875
7955	120697	122.06610623329	0.875
7955	120859	122.190986940353	0.875
7955	120930	122.265297114568	0.125
7955	121958	123.173541678745	-0.125
7955	122898	124.079477960363	-0.125
7955	123243	124.382208514884	0.75
7955	123542	124.626940298978	0.5
7955	124078	125.028645435335	0.5
7955	124763	125.628645435335	0.375
7955	125117	125.930393126577	0.625
7955	125791	126.435517426228	0.5
7955	126011	126.623603689972	-0.125
7955	126191	126.743944464653	0.625
7955	126880	127.344054464653	0.125
7955	128460	128.644054464653	-0.75
7955	128819	128.892524366974	0.875
7955	129156	129.157548434716	0.375
7955	129488	129.508596457549	0.375
7955	129762	129.759162392108	0.375
7955	130026	129.96661278953	0.875
7955	130091	130.013853025972	0.375
7955	130097	130.015596623171	0.75
7955	130618	130.416444198289	0.375
7955	131297	130.916444198289	0.5
7955	131570	131.12452631806	0.875
7955	131964	131.396710746991	0.625
7955	131995	131.42924897642	0.625
7955	132521	131.809379428142	0.5
7955	132889	132.105648822947	0.375
7955	132895	132.116288762985	0.375
7955	132905	132.119623197138	0.625
7955	132952	132.135593596958	0.25
7955	132989	132.157724126428	0.25
7955	134941	133.659134023078	-1
7955	135741	134.459134023078	0.125
7955	135989	134.767648858034	0.75
7955	136123	134.970619019187	0.875
7956	132	20.10001	0.1
7956	463	20.60001	0.5
7956	1066	21.310422634078	0.6
7956	1451	21.612286155669	0.7
7956	1464	21.614882437981	0.3
7956	1704	21.814992437981	0.2
7956	2469	22.414992437981	0.6
7956	2826	22.739657456468	0.3
7956	3546	23.468259904909	0.7
7956	4044	23.879505197091	0.4
7956	4582	24.286996415341	0.4
7956	4939	24.586996415341	0.3
7956	5284	24.794701463462	0.2
7956	5571	25.033518111818	0.4
7956	5849	25.233690430375	0.2
7956	5932	25.256603030847	0.2
7956	6568	25.757545937787	0.5
7956	6853	25.957545937787	0.2
7956	7414	26.381746045191	0.4
7956	7999	26.851060420931	0.3
7956	8610	27.356485940063	0.5
7956	8761	27.45830880086	0.4
7956	8960	27.565210839985	0.2
7956	9183	27.755571865399	0.2
7956	9206	27.762427607176	0.3
7956	9307	27.80737441885	1.4
7956	9350	27.866445953119	0.3
7956	9764	28.167242056268	0.3
7956	10165	28.477723385579	0.3
7956	10596	28.78193161269	0.3
7956	11696	29.589384774336	0.8
7956	12791	30.489384774336	0.9
7956	14025	31.476472712109	0.7
7956	14061	31.493627086031	1
7956	14302	31.683515403937	0.2
7956	14427	31.803150533736	0.3
7956	14620	32.004502561423	0.2
7956	14654	32.008850095873	0.2
7956	14676	32.011468036766	0
7956	15018	32.324434730414	0.3
7956	15170	32.489908544151	0.2
7956	15294	32.590018544151	0.1
7956	15585	32.890018544151	0.3
7956	16286	33.497779181998	0.6
7956	16954	34.11616512685	0.6
7956	17496	34.554222925942	0.3
7956	18941	35.662108970823	1.1
7956	18945	35.662869749598	1.1
7956	19180	35.865308181334	0.2
7956	19187	35.871635214621	0.2
7956	19770	36.398509222306	0.6
7956	20328	36.8733516738	1
7956	20330	36.874322704533	1
7956	21009	37.476512097762	0.6
7956	21306	37.776512097762	0.3
7956	21816	38.193672198761	0.4
7956	22040	38.393873663885	0.2
7956	22507	38.693983663885	0.3
7956	22852	38.993983663885	0.3
7956	23200	39.294457615121	0.3
7956	23686	39.703599857153	0.4
7956	24227	40.108297676826	0.4
7956	24306	40.187264252654	0.3
7956	25517	41.194466662842	1
7956	25725	41.394466662842	0.2
7956	26197	41.897661866182	0.5
7956	26766	42.400024353458	0.5
7956	27211	42.77382903145	0.5
7956	27257	42.806300555648	0.4
7956	29020	44.210227286475	1.4
7956	29774	44.813165755036	0.6
7956	30018	45.016804757054	0.2
7956	30284	45.225973001296	0.2
7956	30652	45.53432263732	0.3
7956	31093	45.93702557168	0.4
7956	31331	46.146205948763	0.3
7956	31552	46.342876552278	0.4
7956	31782	46.55500549425	0.4
7956	31996	46.764669765936	0.2
7956	32944	47.59981002031	0.3
7956	33132	47.764669765936	1
7956	33149	47.765495706025	0
7956	33409	47.971353855376	0.2
7956	34705	49.146782466703	0.7
7956	34933	49.446782466703	0.3
7956	35355	49.852104410348	0.4
7956	35679	50.155797890476	0.3
7956	36534	50.95832509753	0.8
7956	37180	51.463735172158	0.5
7956	37501	51.695701764603	0.4
7956	37793	51.89764694744	0.2
7956	38599	52.49764694744	0.6
7956	38749	52.603794514678	0.1
7956	39011	52.803904514678	0.2
7956	39369	53.103904514678	0.3
7956	39473	53.204014514678	0.1
7956	40030	53.604014514678	0.4
7956	40355	53.843202263031	0.2
7956	40603	54.047989048329	0.2
7956	41577	54.953445491856	0.9
7956	41976	55.253445491856	0.3
7956	42703	55.856321332999	0.6
7956	43087	56.160351871598	0.3
7956	43181	56.222292140382	0.3
7956	43454	56.424503237793	0.2
7956	44209	57.036118120042	0.6
7956	44258	57.068646030485	0.9
7956	45105	57.773137295356	0.7
7956	45553	58.173137295356	0.4
7956	45976	58.4752647309	0.3
7956	47245	59.782852460464	1.3
7956	48253	60.582852460464	0.8
7956	48955	61.086842931345	0.5
7956	49601	61.687651486218	0.6
7956	49905	61.894209497199	0.2
7956	50996	62.794209497199	0.9
7956	51663	63.439156680305	0.5
7956	51711	63.507766753756	0.7
7956	51868	63.610795905292	0.1
7956	52069	63.810795905292	0.2
7956	52328	64.014042032572	0.2
7956	52724	64.323585668581	0.4
7956	53448	64.930504766987	0.6
7956	53946	65.430504766987	0.5
7956	54076	65.540385449115	0.1
7956	54458	65.940385449115	0.4
7956	54773	66.245862289816	0.3
7956	55598	66.954119766091	0.7
7956	56017	67.362738328496	0.4