version 2
run Stability-31-20130528-00:52:06-21385
attr configname Stability
attr datetime 20130528-00:52:06
attr experiment Stability
attr inifile omnetpp.ini
attr iterationvars $0=1e3
attr iterationvars2 "$0=1e3, $repetition=1"
attr measurement $0=1e3
attr network Network
attr processid 21385
attr repetition 1
attr replication #1
attr resultdir results
attr runnumber 31
attr seedset 31

vector 3103  Network.churner  inGoingSizeSig:vector  ETV
vector 3007  Network.dyn_peer[0]  lookupHopsSig:vector  ETV
vector 3008  Network.dyn_peer[0]  lookupStabilitySig:vector  ETV
vector 3009  Network.dyn_peer[0]  lookupTimeSig:vector  ETV
vector 3010  Network.dyn_peer[1]  lookupHopsSig:vector  ETV
vector 3011  Network.dyn_peer[1]  lookupStabilitySig:vector  ETV
vector 3012  Network.dyn_peer[1]  lookupTimeSig:vector  ETV
vector 3013  Network.dyn_peer[2]  lookupHopsSig:vector  ETV
vector 3014  Network.dyn_peer[2]  lookupStabilitySig:vector  ETV
vector 3015  Network.dyn_peer[2]  lookupTimeSig:vector  ETV
vector 3016  Network.dyn_peer[3]  lookupHopsSig:vector  ETV
vector 3017  Network.dyn_peer[3]  lookupStabilitySig:vector  ETV
vector 3018  Network.dyn_peer[3]  lookupTimeSig:vector  ETV
vector 3019  Network.dyn_peer[4]  lookupHopsSig:vector  ETV
vector 3020  Network.dyn_peer[4]  lookupStabilitySig:vector  ETV
vector 3021  Network.dyn_peer[4]  lookupTimeSig:vector  ETV
vector 3022  Network.dyn_peer[5]  lookupHopsSig:vector  ETV
vector 3023  Network.dyn_peer[5]  lookupStabilitySig:vector  ETV
vector 3024  Network.dyn_peer[5]  lookupTimeSig:vector  ETV
vector 3025  Network.dyn_peer[6]  lookupHopsSig:vector  ETV
vector 3026  Network.dyn_peer[6]  lookupStabilitySig:vector  ETV
vector 3027  Network.dyn_peer[6]  lookupTimeSig:vector  ETV
vector 3028  Network.dyn_peer[7]  lookupHopsSig:vector  ETV
vector 3029  Network.dyn_peer[7]  lookupStabilitySig:vector  ETV
vector 3030  Network.dyn_peer[7]  lookupTimeSig:vector  ETV
vector 3031  Network.dyn_peer[8]  lookupHopsSig:vector  ETV
vector 3032  Network.dyn_peer[8]  lookupStabilitySig:vector  ETV
vector 3033  Network.dyn_peer[8]  lookupTimeSig:vector  ETV
vector 3034  Network.dyn_peer[9]  lookupHopsSig:vector  ETV
vector 3035  Network.dyn_peer[9]  lookupStabilitySig:vector  ETV
vector 3036  Network.dyn_peer[9]  lookupTimeSig:vector  ETV
vector 3037  Network.dyn_peer[10]  lookupHopsSig:vector  ETV
vector 3038  Network.dyn_peer[10]  lookupStabilitySig:vector  ETV
vector 3039  Network.dyn_peer[10]  lookupTimeSig:vector  ETV
vector 3040  Network.dyn_peer[11]  lookupHopsSig:vector  ETV
vector 3041  Network.dyn_peer[11]  lookupStabilitySig:vector  ETV
vector 3042  Network.dyn_peer[11]  lookupTimeSig:vector  ETV
vector 3043  Network.dyn_peer[12]  lookupHopsSig:vector  ETV
vector 3044  Network.dyn_peer[12]  lookupStabilitySig:vector  ETV
vector 3045  Network.dyn_peer[12]  lookupTimeSig:vector  ETV
vector 3046  Network.dyn_peer[13]  lookupHopsSig:vector  ETV
vector 3047  Network.dyn_peer[13]  lookupStabilitySig:vector  ETV
vector 3048  Network.dyn_peer[13]  lookupTimeSig:vector  ETV
vector 3049  Network.dyn_peer[14]  lookupHopsSig:vector  ETV
vector 3050  Network.dyn_peer[14]  lookupStabilitySig:vector  ETV
vector 3051  Network.dyn_peer[14]  lookupTimeSig:vector  ETV
vector 3052  Network.dyn_peer[15]  lookupHopsSig:vector  ETV
vector 3053  Network.dyn_peer[15]  lookupStabilitySig:vector  ETV
vector 3054  Network.dyn_peer[15]  lookupTimeSig:vector  ETV
vector 3055  Network.dyn_peer[16]  lookupHopsSig:vector  ETV
vector 3056  Network.dyn_peer[16]  lookupStabilitySig:vector  ETV
vector 3057  Network.dyn_peer[16]  lookupTimeSig:vector  ETV
vector 3058  Network.dyn_peer[17]  lookupHopsSig:vector  ETV
vector 3059  Network.dyn_peer[17]  lookupStabilitySig:vector  ETV
vector 3060  Network.dyn_peer[17]  lookupTimeSig:vector  ETV
vector 3061  Network.dyn_peer[18]  lookupHopsSig:vector  ETV
vector 3062  Network.dyn_peer[18]  lookupStabilitySig:vector  ETV
vector 3063  Network.dyn_peer[18]  lookupTimeSig:vector  ETV
vector 3064  Network.dyn_peer[19]  lookupHopsSig:vector  ETV
vector 3065  Network.dyn_peer[19]  lookupStabilitySig:vector  ETV
vector 3066  Network.dyn_peer[19]  lookupTimeSig:vector  ETV
vector 3067  Network.dyn_peer[20]  lookupHopsSig:vector  ETV
vector 3068  Network.dyn_peer[20]  lookupStabilitySig:vector  ETV
vector 3069  Network.dyn_peer[20]  lookupTimeSig:vector  ETV
vector 3070  Network.dyn_peer[21]  lookupHopsSig:vector  ETV
vector 3071  Network.dyn_peer[21]  lookupStabilitySig:vector  ETV
vector 3072  Network.dyn_peer[21]  lookupTimeSig:vector  ETV
vector 3073  Network.dyn_peer[22]  lookupHopsSig:vector  ETV
vector 3074  Network.dyn_peer[22]  lookupStabilitySig:vector  ETV
vector 3075  Network.dyn_peer[22]  lookupTimeSig:vector  ETV
vector 3076  Network.dyn_peer[23]  lookupHopsSig:vector  ETV
vector 3077  Network.dyn_peer[23]  lookupStabilitySig:vector  ETV
vector 3078  Network.dyn_peer[23]  lookupTimeSig:vector  ETV
vector 3079  Network.dyn_peer[24]  lookupHopsSig:vector  ETV
vector 3080  Network.dyn_peer[24]  lookupStabilitySig:vector  ETV
vector 3081  Network.dyn_peer[24]  lookupTimeSig:vector  ETV
vector 3082  Network.dyn_peer[25]  lookupHopsSig:vector  ETV
vector 3083  Network.dyn_peer[25]  lookupStabilitySig:vector  ETV
vector 3084  Network.dyn_peer[25]  lookupTimeSig:vector  ETV
vector 3085  Network.dyn_peer[26]  lookupHopsSig:vector  ETV
vector 3086  Network.dyn_peer[26]  lookupStabilitySig:vector  ETV
vector 3087  Network.dyn_peer[26]  lookupTimeSig:vector  ETV
vector 3088  Network.dyn_peer[27]  lookupHopsSig:vector  ETV
vector 3089  Network.dyn_peer[27]  lookupStabilitySig:vector  ETV
vector 3090  Network.dyn_peer[27]  lookupTimeSig:vector  ETV
vector 3091  Network.dyn_peer[28]  lookupHopsSig:vector  ETV
vector 3092  Network.dyn_peer[28]  lookupStabilitySig:vector  ETV
vector 3093  Network.dyn_peer[28]  lookupTimeSig:vector  ETV
vector 3094  Network.dyn_peer[29]  lookupHopsSig:vector  ETV
vector 3095  Network.dyn_peer[29]  lookupStabilitySig:vector  ETV
vector 3096  Network.dyn_peer[29]  lookupTimeSig:vector  ETV
vector 3097  Network.dyn_peer[30]  lookupHopsSig:vector  ETV
vector 3098  Network.dyn_peer[30]  lookupStabilitySig:vector  ETV
vector 3099  Network.dyn_peer[30]  lookupTimeSig:vector  ETV
vector 3100  Network.dyn_peer[31]  lookupHopsSig:vector  ETV
vector 3101  Network.dyn_peer[31]  lookupStabilitySig:vector  ETV
vector 3102  Network.dyn_peer[31]  lookupTimeSig:vector  ETV
3007	29	21.1	1
3007	33	21.4	2
3007	39	21.619110379858	1
3007	46	21.932071459051	2
3007	1051	53	0
3007	1054	53.2	1
3007	1059	53.503242986409	2
3007	1067	53.728845020895	1
3007	2076	85.1	1
3007	2079	85.3	1
3007	2083	85.503171933828	1
3007	2097	85.753550253079	1
3007	3106	117.1	1
3007	3110	117.4	2
3007	3115	117.709378853575	2
3007	3119	117.917430960035	1
3007	4179	149.1	1
3007	4183	149.304353922388	1
3007	4187	149.510438517258	1
3007	4191	149.715959899588	1
3007	5249	181.2	2
3007	5252	181.4	1
3007	5258	181.613419797347	1
3007	5267	181.839596446245	1
3007	6274	213.1	1
3007	6278	213.4	2
3007	6282	213.609260254339	1
3007	6286	213.817395523229	1
3007	7275	245.1	1
3007	7278	245.3	1
3007	7282	245.504337418039	1
3007	7289	245.726837157701	1
3007	8291	277.1	1
3007	8294	277.3	1
3007	8298	277.505866300056	1
3007	8306	277.724165333445	1
3007	9325	309.2	2
3007	9330	309.503996231444	2
3007	9334	309.707279757663	1
3007	9338	309.911898501672	1
3007	10422	341.1	1
3007	10426	341.4	2
3007	10431	341.706012936669	2
3007	10438	341.93399971033	1
3007	11487	373.1	1
3007	11490	373.3	1
3007	11495	373.608686437604	2
3007	11500	373.908975961426	2
3007	12529	405.1	1
3007	12533	405.308677398499	1
3007	12538	405.613007045322	2
3007	12545	405.934372631611	2
3007	13552	437.1	1
3007	13555	437.3	1
3007	13561	437.606526014196	2
3007	13565	437.810651953235	1
3007	14588	469.1	1
3007	14593	469.305462187028	1
3007	14600	469.522064325994	1
3007	14605	469.822954932384	2
3007	15635	501.2	2
3007	15638	501.4	1
3007	15644	501.616727532423	1
3007	15648	501.818371758116	1
3007	16661	533.1	1
3007	16665	533.4	2
3007	16670	533.704739049924	2
3007	16674	533.91255764421	1
3007	17691	565.2	2
3007	17695	565.5	2
3007	17700	565.805418363828	2
3007	17713	566.015203399471	1
3007	18736	597.1	1
3007	18740	597.308488293052	1
3007	18744	597.513458109697	1
3007	18748	597.72059974562	1
3007	19737	629.2	2
3007	19740	629.4	1
3007	19744	629.605004822453	1
3007	19748	629.809682712214	1
3007	20760	661.2	2
3007	20764	661.5	2
3007	20769	661.80669151474	2
3007	20776	662.013415890428	1
3007	21799	693.2	2
3007	21803	693.5	2
3007	21809	693.809561293036	2
3007	21816	694.013025025149	1
3007	22808	725.1	1
3007	22812	725.4	2
3007	22816	725.602868498722	1
3007	22822	725.814267664212	1
3007	23842	757.1	1
3007	23846	757.4	2
3007	23851	757.705115788045	2
3007	23860	758.012061374866	2
3007	24897	789	0
3007	24902	789.309404272176	2
3007	24912	789.539232392533	1
3007	24916	789.744929298677	1
3007	25941	821.1	1
3007	25946	821.401537041747	2
3007	25950	821.605429978844	1
3007	25955	821.908243776711	2
3007	26975	853.1	1
3007	26978	853.3	1
3007	26983	853.600908014078	2
3007	26987	853.809809922766	1
3007	28026	885.2	2
3007	28029	885.4	1
3007	28034	885.701892102628	2
3007	28038	885.905842636704	1
3007	29072	917.1	1
3007	29075	917.3	1
3007	29080	917.510472695177	1
3007	29087	917.743611153992	1
3007	30147	949	0
3007	30151	949.3	2
3007	30156	949.606405399416	2
3007	30162	949.909865251666	2
3007	31154	981.1	1
3007	31158	981.4	2
3007	31163	981.700253372299	2
3007	31167	981.906103535044	1
3007	32185	1013.1	1
3007	32189	1013.4	2
3007	32195	1013.706579498394	2
3007	32199	1013.915711123402	1
3007	33222	1045	0
3007	33226	1045.3	2
3007	33247	1045.701861765939	2
3007	33260	1046.038468276734	2
3007	34259	1077.1	1
3007	34262	1077.3	1
3007	34268	1077.504485520693	1
3007	34273	1077.809825461304	2
3007	35326	1109.2	2
3007	35329	1109.4	1
3007	35335	1109.709166826626	2
3007	35342	1109.933402393365	1
3007	36354	1141.1	1
3007	36358	1141.4	2
3007	36364	1141.71061677484	2
3007	36369	1141.918711354635	1
3007	37398	1173.1	1
3007	37402	1173.4	2
3007	37407	1173.707107178568	2
3007	37417	1173.940028537068	1
3007	38437	1205.1	1
3007	38442	1205.310906093743	1
3007	38449	1205.530876891295	1
3007	38455	1205.747024633635	1
3007	39462	1237.2	2
3007	39467	1237.50150702388	2
3007	39474	1237.718035085164	1
3007	39479	1237.929829867484	1
3007	40487	1269.2	2
3007	40490	1269.4	1
3007	40494	1269.609381511772	1
3007	40499	1269.812336862917	1
3007	41524	1301.2	2
3007	41527	1301.4	1
3007	41531	1301.602381352572	1
3007	41536	1301.82080377312	1
3007	42535	1333.1	1
3007	42539	1333.4	2
3007	42545	1333.610488058518	1
3007	42549	1333.814362171684	1
3007	43558	1365.2	2
3007	43561	1365.4	1
3007	43565	1365.601742685243	1
3007	43569	1365.810768920834	1
3007	44594	1397	0
3007	44598	1397.3	2
3007	44602	1397.509378265675	1
3007	44606	1397.709880337751	1
3007	45609	1429.1	1
3007	45614	1429.313551202785	1
3007	45621	1429.536141603616	1
3007	45626	1429.842625407691	2
3007	46633	1461.1	1
3007	46636	1461.3	1
3007	46642	1461.61658243206	2
3007	46647	1461.829422350076	1
3007	47686	1493.1	1
3007	47697	1493.43301862271	2
3007	47706	1493.656485781564	1
3007	47720	1493.917314983842	1
3007	48717	1525.1	1
3007	48720	1525.3	1
3007	48729	1525.522676630252	1
3007	48735	1525.737272433739	1
3007	49764	1557.1	1
3007	49767	1557.3	1
3007	49772	1557.608931649359	2
3007	49776	1557.811011997369	1
3007	50811	1589.1	1
3007	50815	1589.4	2
3007	50820	1589.703531035301	2
3007	50828	1590.010023286693	2
3007	51867	1621.2	2
3007	51872	1621.6	3
3007	51876	1621.809642394126	1
3007	51890	1622.11648549876	2
3007	52907	1653	0
3007	52913	1653.310185785139	2
3007	52917	1653.515515804864	1
3007	52921	1653.719389608602	1
3007	53915	1685.1	1
3007	53918	1685.3	1
3007	53924	1685.515297438462	1
3007	53929	1685.725874454019	1
3007	54947	1717.1	1
3007	54952	1717.5	3
3007	54957	1717.707786691225	1
3007	54961	1717.911944505708	1
3007	56012	1749.4	5
3007	56015	1749.6	1
3007	56020	1749.806504138188	1
3007	56028	1750.016117313984	1
3007	57043	1781.1	1
3007	57047	1781.4	2
3007	57052	1781.70729973443	2
3007	57057	1781.912528319253	1
3007	58108	1813.2	2
3007	58111	1813.4	1
3007	58116	1813.702854954709	2
3007	58122	1813.917215160623	1
3007	59152	1845.1	1
3007	59156	1845.4	2
3007	59161	1845.706804062274	2
3007	59170	1845.930435947599	1
3007	60167	1877.1	1
3007	60171	1877.4	2
3007	60175	1877.605229524031	1
3007	60180	1877.809850063243	1
3007	61278	1909.2	2
3007	61281	1909.4	1
3007	61287	1909.619220962046	1
3007	61291	1909.820675001676	1
3007	62348	1941	0
3007	62352	1941.205754226101	1
3007	62358	1941.417483493846	1
3007	62364	1941.626716980331	1
3007	63403	1973.2	2
3007	63407	1973.5	2
3007	63411	1973.703533490544	1
3007	63415	1973.908748316508	1
3007	64444	2005.1	1
3007	64448	2005.306781341861	1
3007	64456	2005.620587304866	2
3007	64461	2005.926255263207	2
3007	65521	2037.1	1
3007	65525	2037.4	2
3007	65530	2037.702990814442	2
3007	65541	2038.028048839301	2
3008	29	21.1	0.875
3008	33	21.4	0.75
3008	39	21.619110379858	0.875
3008	46	21.932071459051	0.75
3008	1051	53	1
3008	1054	53.2	0.875
3008	1059	53.503242986409	0.75
3008	1067	53.728845020895	0.875
3008	2076	85.1	0.875
3008	2079	85.3	0.875
3008	2083	85.503171933828	0.875
3008	2097	85.753550253079	0.875
3008	3106	117.1	0.875
3008	3110	117.4	0.75
3008	3115	117.709378853575	0.75
3008	3119	117.917430960035	0.875
3008	4179	149.1	0.875
3008	4183	149.304353922388	0.875
3008	4187	149.510438517258	0.875
3008	4191	149.715959899588	0.875
3008	5249	181.2	0.75
3008	5252	181.4	0.875
3008	5258	181.613419797347	0.875
3008	5267	181.839596446245	0.875
3008	6274	213.1	0.875
3008	6278	213.4	0.75
3008	6282	213.609260254339	0.875
3008	6286	213.817395523229	0.875
3008	7275	245.1	0.875
3008	7278	245.3	0.875
3008	7282	245.504337418039	0.875
3008	7289	245.726837157701	0.875
3008	8291	277.1	0.875
3008	8294	277.3	0.875
3008	8298	277.505866300056	0.875
3008	8306	277.724165333445	0.875
3008	9325	309.2	0.75
3008	9330	309.503996231444	0.75
3008	9334	309.707279757663	0.875
3008	9338	309.911898501672	0.875
3008	10422	341.1	0.875
3008	10426	341.4	0.75
3008	10431	341.706012936669	0.75
3008	10438	341.93399971033	0.875
3008	11487	373.1	0.875
3008	11490	373.3	0.875
3008	11495	373.608686437604	0.75
3008	11500	373.908975961426	0.75
3008	12529	405.1	0.875
3008	12533	405.308677398499	0.875
3008	12538	405.613007045322	0.75
3008	12545	405.934372631611	0.75
3008	13552	437.1	0.875
3008	13555	437.3	0.875
3008	13561	437.606526014196	0.75
3008	13565	437.810651953235	0.875
3008	14588	469.1	0.875
3008	14593	469.305462187028	0.875
3008	14600	469.522064325994	0.875
3008	14605	469.822954932384	0.75
3008	15635	501.2	0.75
3008	15638	501.4	0.875
3008	15644	501.616727532423	0.875
3008	15648	501.818371758116	0.875
3008	16661	533.1	0.875
3008	16665	533.4	0.75
3008	16670	533.704739049924	0.75
3008	16674	533.91255764421	0.875
3008	17691	565.2	0.75
3008	17695	565.5	0.75
3008	17700	565.805418363828	0.75
3008	17713	566.015203399471	0.875
3008	18736	597.1	0.875
3008	18740	597.308488293052	0.875
3008	18744	597.513458109697	0.875
3008	18748	597.72059974562	0.875
3008	19737	629.2	0.75
3008	19740	629.4	0.875
3008	19744	629.605004822453	0.875
3008	19748	629.809682712214	0.875
3008	20760	661.2	0.75
3008	20764	661.5	0.75
3008	20769	661.80669151474	0.75
3008	20776	662.013415890428	0.875
3008	21799	693.2	0.75
3008	21803	693.5	0.75
3008	21809	693.809561293036	0.75
3008	21816	694.013025025149	0.875
3008	22808	725.1	0.875
3008	22812	725.4	0.75
3008	22816	725.602868498722	0.875
3008	22822	725.814267664212	0.875
3008	23842	757.1	0.875
3008	23846	757.4	0.75
3008	23851	757.705115788045	0.75
3008	23860	758.012061374866	0.75
3008	24897	789	1
3008	24902	789.309404272176	0.75
3008	24912	789.539232392533	0.875
3008	24916	789.744929298677	0.875
3008	25941	821.1	0.875
3008	25946	821.401537041747	0.75
3008	25950	821.605429978844	0.875
3008	25955	821.908243776711	0.75
3008	26975	853.1	0.875
3008	26978	853.3	0.875
3008	26983	853.600908014078	0.75
3008	26987	853.809809922766	0.875
3008	28026	885.2	0.75
3008	28029	885.4	0.875
3008	28034	885.701892102628	0.75
3008	28038	885.905842636704	0.875
3008	29072	917.1	0.875
3008	29075	917.3	0.875
3008	29080	917.510472695177	0.875
3008	29087	917.743611153992	0.875
3008	30147	949	1
3008	30151	949.3	0.75
3008	30156	949.606405399416	0.75
3008	30162	949.909865251666	0.75
3008	31154	981.1	0.875
3008	31158	981.4	0.75
3008	31163	981.700253372299	0.75
3008	31167	981.906103535044	0.875
3008	32185	1013.1	0.875
3008	32189	1013.4	0.75
3008	32195	1013.706579498394	0.75
3008	32199	1013.915711123402	0.875
3008	33222	1045	1
3008	33226	1045.3	0.75
3008	33247	1045.701861765939	0.75
3008	33260	1046.038468276734	0.75
3008	34259	1077.1	0.875
3008	34262	1077.3	0.875
3008	34268	1077.504485520693	0.875
3008	34273	1077.809825461304	0.75
3008	35326	1109.2	0.75
3008	35329	1109.4	0.875
3008	35335	1109.709166826626	0.75
3008	35342	1109.933402393365	0.875
3008	36354	1141.1	0.875
3008	36358	1141.4	0.75
3008	36364	1141.71061677484	0.75
3008	36369	1141.918711354635	0.875
3008	37398	1173.1	0.875
3008	37402	1173.4	0.75
3008	37407	1173.707107178568	0.75
3008	37417	1173.940028537068	0.875
3008	38437	1205.1	0.875
3008	38442	1205.310906093743	0.875
3008	38449	1205.530876891295	0.875
3008	38455	1205.747024633635	0.875
3008	39462	1237.2	0.75
3008	39467	1237.50150702388	0.75
3008	39474	1237.718035085164	0.875
3008	39479	1237.929829867484	0.875
3008	40487	1269.2	0.75
3008	40490	1269.4	0.875
3008	40494	1269.609381511772	0.875
3008	40499	1269.812336862917	0.875
3008	41524	1301.2	0.75
3008	41527	1301.4	0.875
3008	41531	1301.602381352572	0.875
3008	41536	1301.82080377312	0.875
3008	42535	1333.1	0.875
3008	42539	1333.4	0.75
3008	42545	1333.610488058518	0.875
3008	42549	1333.814362171684	0.875
3008	43558	1365.2	0.75
3008	43561	1365.4	0.875
3008	43565	1365.601742685243	0.875
3008	43569	1365.810768920834	0.875
3008	44594	1397	1
3008	44598	1397.3	0.75
3008	44602	1397.509378265675	0.875
3008	44606	1397.709880337751	0.875
3008	45609	1429.1	0.875
3008	45614	1429.313551202785	0.875
3008	45621	1429.536141603616	0.875
3008	45626	1429.842625407691	0.75
3008	46633	1461.1	0.875
3008	46636	1461.3	0.875
3008	46642	1461.61658243206	0.75
3008	46647	1461.829422350076	0.875
3008	47686	1493.1	0.875
3008	47697	1493.43301862271	0.75
3008	47706	1493.656485781564	0.875
3008	47720	1493.917314983842	0.875
3008	48717	1525.1	0.875
3008	48720	1525.3	0.875
3008	48729	1525.522676630252	0.875
3008	48735	1525.737272433739	0.875
3008	49764	1557.1	0.875
3008	49767	1557.3	0.875
3008	49772	1557.608931649359	0.75
3008	49776	1557.811011997369	0.875
3008	50811	1589.1	0.875
3008	50815	1589.4	0.75
3008	50820	1589.703531035301	0.75
3008	50828	1590.010023286693	0.75
3008	51867	1621.2	0.75
3008	51872	1621.6	0.625
3008	51876	1621.809642394126	0.875
3008	51890	1622.11648549876	0.75
3008	52907	1653	1
3008	52913	1653.310185785139	0.75
3008	52917	1653.515515804864	0.875
3008	52921	1653.719389608602	0.875
3008	53915	1685.1	0.875
3008	53918	1685.3	0.875
3008	53924	1685.515297438462	0.875
3008	53929	1685.725874454019	0.875
3008	54947	1717.1	0.875
3008	54952	1717.5	0.625
3008	54957	1717.707786691225	0.875
3008	54961	1717.911944505708	0.875
3008	56012	1749.4	0.375
3008	56015	1749.6	0.875
3008	56020	1749.806504138188	0.875
3008	56028	1750.016117313984	0.875
3008	57043	1781.1	0.875
3008	57047	1781.4	0.75
3008	57052	1781.70729973443	0.75
3008	57057	1781.912528319253	0.875
3008	58108	1813.2	0.75
3008	58111	1813.4	0.875
3008	58116	1813.702854954709	0.75
3008	58122	1813.917215160623	0.875
3008	59152	1845.1	0.875
3008	59156	1845.4	0.75
3008	59161	1845.706804062274	0.75
3008	59170	1845.930435947599	0.875
3008	60167	1877.1	0.875
3008	60171	1877.4	0.75
3008	60175	1877.605229524031	0.875
3008	60180	1877.809850063243	0.875
3008	61278	1909.2	0.75
3008	61281	1909.4	0.875
3008	61287	1909.619220962046	0.875
3008	61291	1909.820675001676	0.875
3008	62348	1941	1
3008	62352	1941.205754226101	0.875
3008	62358	1941.417483493846	0.875
3008	62364	1941.626716980331	0.875
3008	63403	1973.2	0.75
3008	63407	1973.5	0.75
3008	63411	1973.703533490544	0.875
3008	63415	1973.908748316508	0.875
3008	64444	2005.1	0.875
3008	64448	2005.306781341861	0.875
3008	64456	2005.620587304866	0.75
3008	64461	2005.926255263207	0.75
3008	65521	2037.1	0.875
3008	65525	2037.4	0.75
3008	65530	2037.702990814442	0.75
3008	65541	2038.028048839301	0.75
3009	29	21.1	0.1
3009	33	21.4	0.3
3009	39	21.619110379858	0.2
3009	46	21.932071459051	0.3
3009	1051	53	0
3009	1054	53.2	0.2
3009	1059	53.503242986409	0.3
3009	1067	53.728845020895	0.2
3009	2076	85.1	0.1
3009	2079	85.3	0.2
3009	2083	85.503171933828	0.2
3009	2097	85.753550253079	0.2
3009	3106	117.1	0.1
3009	3110	117.4	0.3
3009	3115	117.709378853575	0.3
3009	3119	117.917430960035	0.2
3009	4179	149.1	0.1
3009	4183	149.304353922388	0.2
3009	4187	149.510438517258	0.2
3009	4191	149.715959899588	0.2
3009	5249	181.2	0.2
3009	5252	181.4	0.2
3009	5258	181.613419797347	0.2
3009	5267	181.839596446245	0.2
3009	6274	213.1	0.1
3009	6278	213.4	0.3
3009	6282	213.609260254339	0.2
3009	6286	213.817395523229	0.2
3009	7275	245.1	0.1
3009	7278	245.3	0.2
3009	7282	245.504337418039	0.2
3009	7289	245.726837157701	0.2
3009	8291	277.1	0.1
3009	8294	277.3	0.2
3009	8298	277.505866300056	0.2
3009	8306	277.724165333445	0.2
3009	9325	309.2	0.2
3009	9330	309.503996231444	0.3
3009	9334	309.707279757663	0.2
3009	9338	309.911898501672	0.2
3009	10422	341.1	0.1
3009	10426	341.4	0.3
3009	10431	341.706012936669	0.3
3009	10438	341.93399971033	0.2
3009	11487	373.1	0.1
3009	11490	373.3	0.2
3009	11495	373.608686437604	0.3
3009	11500	373.908975961426	0.3
3009	12529	405.1	0.1
3009	12533	405.308677398499	0.2
3009	12538	405.613007045322	0.3
3009	12545	405.934372631611	0.3
3009	13552	437.1	0.1
3009	13555	437.3	0.2
3009	13561	437.606526014196	0.3
3009	13565	437.810651953235	0.2
3009	14588	469.1	0.1
3009	14593	469.305462187028	0.2
3009	14600	469.522064325994	0.2
3009	14605	469.822954932384	0.3
3009	15635	501.2	0.2
3009	15638	501.4	0.2
3009	15644	501.616727532423	0.2
3009	15648	501.818371758116	0.2
3009	16661	533.1	0.1
3009	16665	533.4	0.3
3009	16670	533.704739049924	0.3
3009	16674	533.91255764421	0.2
3009	17691	565.2	0.2
3009	17695	565.5	0.3
3009	17700	565.805418363828	0.3
3009	17713	566.015203399471	0.2
3009	18736	597.1	0.1
3009	18740	597.308488293052	0.2
3009	18744	597.513458109697	0.2
3009	18748	597.72059974562	0.2
3009	19737	629.2	0.2
3009	19740	629.4	0.2
3009	19744	629.605004822453	0.2
3009	19748	629.809682712214	0.2
3009	20760	661.2	0.2
3009	20764	661.5	0.3
3009	20769	661.80669151474	0.3
3009	20776	662.013415890428	0.2
3009	21799	693.2	0.2
3009	21803	693.5	0.3
3009	21809	693.809561293036	0.3
3009	21816	694.013025025149	0.2
3009	22808	725.1	0.1
3009	22812	725.4	0.3
3009	22816	725.602868498722	0.2
3009	22822	725.814267664212	0.2
3009	23842	757.1	0.1
3009	23846	757.4	0.3
3009	23851	757.705115788045	0.3
3009	23860	758.012061374866	0.3
3009	24897	789	0
3009	24902	789.309404272176	0.3
3009	24912	789.539232392533	0.2
3009	24916	789.744929298677	0.2
3009	25941	821.1	0.1
3009	25946	821.401537041747	0.3
3009	25950	821.605429978844	0.2
3009	25955	821.908243776711	0.3
3009	26975	853.1	0.1
3009	26978	853.3	0.2
3009	26983	853.600908014078	0.3
3009	26987	853.809809922766	0.2
3009	28026	885.2	0.2
3009	28029	885.4	0.2
3009	28034	885.701892102628	0.3
3009	28038	885.905842636704	0.2
3009	29072	917.1	0.1
3009	29075	917.3	0.2
3009	29080	917.510472695177	0.2
3009	29087	917.743611153992	0.2
3009	30147	949	0
3009	30151	949.3	0.3
3009	30156	949.606405399416	0.3
3009	30162	949.909865251666	0.3
3009	31154	981.1	0.1
3009	31158	981.4	0.3
3009	31163	981.700253372299	0.3
3009	31167	981.906103535044	0.2
3009	32185	1013.1	0.1
3009	32189	1013.4	0.3
3009	32195	1013.706579498394	0.3
3009	32199	1013.915711123402	0.2
3009	33222	1045	0
3009	33226	1045.3	0.3
3009	33247	1045.701861765939	0.3
3009	33260	1046.038468276734	0.3
3009	34259	1077.1	0.1
3009	34262	1077.3	0.2
3009	34268	1077.504485520693	0.2
3009	34273	1077.809825461304	0.3
3009	35326	1109.2	0.2
3009	35329	1109.4	0.2
3009	35335	1109.709166826626	0.3
3009	35342	1109.933402393365	0.2
3009	36354	1141.1	0.1
3009	36358	1141.4	0.3
3009	36364	1141.71061677484	0.3
3009	36369	1141.918711354635	0.2
3009	37398	1173.1	0.1
3009	37402	1173.4	0.3
3009	37407	1173.707107178568	0.3
3009	37417	1173.940028537068	0.2
3009	38437	1205.1	0.1
3009	38442	1205.310906093743	0.2
3009	38449	1205.530876891295	0.2
3009	38455	1205.747024633635	0.2
3009	39462	1237.2	0.2
3009	39467	1237.50150702388	0.3
3009	39474	1237.718035085164	0.2
3009	39479	1237.929829867484	0.2
3009	40487	1269.2	0.2
3009	40490	1269.4	0.2
3009	40494	1269.609381511772	0.2
3009	40499	1269.812336862917	0.2
3009	41524	1301.2	0.2
3009	41527	1301.4	0.2
3009	41531	1301.602381352572	0.2
3009	41536	1301.82080377312	0.2
3009	42535	1333.1	0.1
3009	42539	1333.4	0.3
3009	42545	1333.610488058518	0.2
3009	42549	1333.814362171684	0.2
3009	43558	1365.2	0.2
3009	43561	1365.4	0.2
3009	43565	1365.601742685243	0.2
3009	43569	1365.810768920834	0.2
3009	44594	1397	0
3009	44598	1397.3	0.3
3009	44602	1397.509378265675	0.2
3009	44606	1397.709880337751	0.2
3009	45609	1429.1	0.1
3009	45614	1429.313551202785	0.2
3009	45621	1429.536141603616	0.2
3009	45626	1429.842625407691	0.3
3009	46633	1461.1	0.1
3009	46636	1461.3	0.2
3009	46642	1461.61658243206	0.3
3009	46647	1461.829422350076	0.2
3009	47686	1493.1	0.1
3009	47697	1493.43301862271	0.3
3009	47706	1493.656485781564	0.2
3009	47720	1493.917314983842	0.2
3009	48717	1525.1	0.1
3009	48720	1525.3	0.2
3009	48729	1525.522676630252	0.2
3009	48735	1525.737272433739	0.2
3009	49764	1557.1	0.1
3009	49767	1557.3	0.2
3009	49772	1557.608931649359	0.3
3009	49776	1557.811011997369	0.2
3009	50811	1589.1	0.1
3009	50815	1589.4	0.3
3009	50820	1589.703531035301	0.3
3009	50828	1590.010023286693	0.3
3009	51867	1621.2	0.2
3009	51872	1621.6	0.4
3009	51876	1621.809642394126	0.2
3009	51890	1622.11648549876	0.3
3009	52907	1653	0
3009	52913	1653.310185785139	0.3
3009	52917	1653.515515804864	0.2
3009	52921	1653.719389608602	0.2
3009	53915	1685.1	0.1
3009	53918	1685.3	0.2
3009	53924	1685.515297438462	0.2
3009	53929	1685.725874454019	0.2
3009	54947	1717.1	0.1
3009	54952	1717.5	0.4
3009	54957	1717.707786691225	0.2
3009	54961	1717.911944505708	0.2
3009	56012	1749.4	0.4
3009	56015	1749.6	0.2
3009	56020	1749.806504138188	0.2
3009	56028	1750.016117313984	0.2
3009	57043	1781.1	0.1
3009	57047	1781.4	0.3
3009	57052	1781.70729973443	0.3
3009	57057	1781.912528319253	0.2
3009	58108	1813.2	0.2
3009	58111	1813.4	0.2
3009	58116	1813.702854954709	0.3
3009	58122	1813.917215160623	0.2
3009	59152	1845.1	0.1
3009	59156	1845.4	0.3
3009	59161	1845.706804062274	0.3
3009	59170	1845.930435947599	0.2
3009	60167	1877.1	0.1
3009	60171	1877.4	0.3
3009	60175	1877.605229524031	0.2
3009	60180	1877.809850063243	0.2
3009	61278	1909.2	0.2
3009	61281	1909.4	0.2
3009	61287	1909.619220962046	0.2
3009	61291	1909.820675001676	0.2
3009	62348	1941	0
3009	62352	1941.205754226101	0.2
3009	62358	1941.417483493846	0.2
3009	62364	1941.626716980331	0.2
3009	63403	1973.2	0.2
3009	63407	1973.5	0.3
3009	63411	1973.703533490544	0.2
3009	63415	1973.908748316508	0.2
3009	64444	2005.1	0.1
3009	64448	2005.306781341861	0.2
3009	64456	2005.620587304866	0.3
3009	64461	2005.926255263207	0.3
3009	65521	2037.1	0.1
3009	65525	2037.4	0.3
3009	65530	2037.702990814442	0.3
3009	65541	2038.028048839301	0.3
3010	63	22.1	1
3010	67	22.4	2
3010	71	22.603612569847	1
3010	76	22.907451922587	2
3010	1084	54.1	1
3010	1087	54.3	1
3010	1092	54.607728500205	2
3010	1097	54.812077910291	1
3010	2116	86.3	3
3010	2120	86.501610299898	1
3010	2124	86.70658212474	1
3010	2129	86.917697860014	1
3010	3137	118.2	2
3010	3142	118.412229619581	1
3010	3147	118.717134867371	2
3010	3184	119.079977326844	1
3010	4209	150.2	2
3010	4213	150.5	2
3010	4218	150.705889921793	1
3010	4226	151.007582200997	2
3010	5285	182.2	2
3010	5290	182.6	3
3010	5296	182.827509474385	1
3010	5303	183.029141898088	1
3010	6304	214.2	2
3010	6307	214.4	1
3010	6312	214.703868586628	2
3010	6316	214.910452328766	1
3010	7307	246.2	2
3010	7311	246.5	2
3010	7315	246.709849184707	1
3010	7321	246.918897300649	1
3010	8323	278.1	1
3010	8326	278.3	1
3010	8331	278.608426049808	2
3010	8338	278.926709465963	2
3010	9356	310.2	2
3010	9359	310.4	1
3010	9363	310.609356616518	1
3010	9367	310.811934698146	1
3010	10455	342.1	1
3010	10458	342.3	1
3010	10463	342.51597594394	1
3010	10467	342.723539886235	1
3010	11519	374.3	3
3010	11523	374.6	2
3010	11528	374.903973680294	2
3010	11542	375.116357378925	1
3010	12562	406.1	1
3010	12565	406.3	1
3010	12569	406.505532625615	1
3010	12574	406.718874880406	1
3010	13582	438.1	1
3010	13585	438.3	1
3010	13589	438.501458761915	1
3010	13594	438.705195154595	1
3010	14623	470.2	2
3010	14626	470.4	1
3010	14630	470.60616647104	1
3010	14635	470.909798949022	2
3010	15665	502.1	1
3010	15669	502.306546609445	1
3010	15675	502.519417522766	1
3010	15680	502.731571017484	1
3010	16692	534.2	2
3010	16699	534.515787908858	2
3010	16704	534.718716579846	1
3010	16713	535.033756562361	2
3010	17711	566	0
3010	17725	566.2	1
3010	17731	566.409130511258	1
3010	17738	566.731281323816	2
3010	18764	598	0
3010	18767	598.2	1
3010	18771	598.404853342352	1
3010	18775	598.607525315014	1
3010	19765	630.1	1
3010	19768	630.3	1
3010	19772	630.504993732855	1
3010	19776	630.705078009508	1
3010	20791	662.2	2
3010	20795	662.5	2
3010	20799	662.70160141316	1
3010	20806	662.924787522248	1
3010	21830	694.1	1
3010	21834	694.309982649357	1
3010	21840	694.527200934698	1
3010	21844	694.732954871151	1
3010	22839	726.1	1
3010	22842	726.3	1
3010	22846	726.502262465446	1
3010	22852	726.728721620883	1
3010	23874	758.1	1
3010	23878	758.4	2
3010	23882	758.606786914204	1
3010	23886	758.808212358736	1
3010	24934	790.2	2
3010	24937	790.4	1
3010	24941	790.605931604721	1
3010	24946	790.909568770443	2
3010	25971	822	0
3010	25975	822.203944376071	1
3010	25980	822.415685799837	1
3010	25989	822.741535005894	2
3010	27005	854.2	2
3010	27008	854.4	1
3010	27012	854.605868686176	1
3010	27017	854.910168777277	2
3010	28055	886.1	1
3010	28058	886.3	1
3010	28065	886.526469913037	1
3010	28071	886.737595638583	1