version 2
run Stability-44-20130528-00:52:52-21385
attr configname Stability
attr datetime 20130528-00:52:52
attr experiment Stability
attr inifile omnetpp.ini
attr iterationvars $0=1e2
attr iterationvars2 "$0=1e2, $repetition=4"
attr measurement $0=1e2
attr network Network
attr processid 21385
attr repetition 4
attr replication #4
attr resultdir results
attr runnumber 44
attr seedset 44

vector 4364  Network.churner  inGoingSizeSig:vector  ETV
vector 4271  Network.dyn_peer[1]  lookupHopsSig:vector  ETV
vector 4272  Network.dyn_peer[1]  lookupStabilitySig:vector  ETV
vector 4273  Network.dyn_peer[1]  lookupTimeSig:vector  ETV
vector 4268  Network.dyn_peer[0]  lookupHopsSig:vector  ETV
vector 4269  Network.dyn_peer[0]  lookupStabilitySig:vector  ETV
vector 4270  Network.dyn_peer[0]  lookupTimeSig:vector  ETV
vector 4274  Network.dyn_peer[2]  lookupHopsSig:vector  ETV
vector 4275  Network.dyn_peer[2]  lookupStabilitySig:vector  ETV
vector 4276  Network.dyn_peer[2]  lookupTimeSig:vector  ETV
vector 4280  Network.dyn_peer[4]  lookupHopsSig:vector  ETV
vector 4281  Network.dyn_peer[4]  lookupStabilitySig:vector  ETV
vector 4282  Network.dyn_peer[4]  lookupTimeSig:vector  ETV
vector 4277  Network.dyn_peer[3]  lookupHopsSig:vector  ETV
vector 4278  Network.dyn_peer[3]  lookupStabilitySig:vector  ETV
vector 4279  Network.dyn_peer[3]  lookupTimeSig:vector  ETV
vector 4283  Network.dyn_peer[5]  lookupHopsSig:vector  ETV
vector 4284  Network.dyn_peer[5]  lookupStabilitySig:vector  ETV
vector 4285  Network.dyn_peer[5]  lookupTimeSig:vector  ETV
vector 4292  Network.dyn_peer[8]  lookupHopsSig:vector  ETV
vector 4293  Network.dyn_peer[8]  lookupStabilitySig:vector  ETV
vector 4294  Network.dyn_peer[8]  lookupTimeSig:vector  ETV
vector 4286  Network.dyn_peer[6]  lookupHopsSig:vector  ETV
vector 4287  Network.dyn_peer[6]  lookupStabilitySig:vector  ETV
vector 4288  Network.dyn_peer[6]  lookupTimeSig:vector  ETV
vector 4289  Network.dyn_peer[7]  lookupHopsSig:vector  ETV
vector 4290  Network.dyn_peer[7]  lookupStabilitySig:vector  ETV
vector 4291  Network.dyn_peer[7]  lookupTimeSig:vector  ETV
vector 4295  Network.dyn_peer[9]  lookupHopsSig:vector  ETV
vector 4296  Network.dyn_peer[9]  lookupStabilitySig:vector  ETV
vector 4297  Network.dyn_peer[9]  lookupTimeSig:vector  ETV
vector 4298  Network.dyn_peer[10]  lookupHopsSig:vector  ETV
vector 4299  Network.dyn_peer[10]  lookupStabilitySig:vector  ETV
vector 4300  Network.dyn_peer[10]  lookupTimeSig:vector  ETV
vector 4304  Network.dyn_peer[12]  lookupHopsSig:vector  ETV
vector 4305  Network.dyn_peer[12]  lookupStabilitySig:vector  ETV
vector 4306  Network.dyn_peer[12]  lookupTimeSig:vector  ETV
vector 4307  Network.dyn_peer[13]  lookupHopsSig:vector  ETV
vector 4308  Network.dyn_peer[13]  lookupStabilitySig:vector  ETV
vector 4309  Network.dyn_peer[13]  lookupTimeSig:vector  ETV
vector 4310  Network.dyn_peer[14]  lookupHopsSig:vector  ETV
vector 4311  Network.dyn_peer[14]  lookupStabilitySig:vector  ETV
vector 4312  Network.dyn_peer[14]  lookupTimeSig:vector  ETV
vector 4316  Network.dyn_peer[16]  lookupHopsSig:vector  ETV
vector 4317  Network.dyn_peer[16]  lookupStabilitySig:vector  ETV
vector 4318  Network.dyn_peer[16]  lookupTimeSig:vector  ETV
vector 4301  Network.dyn_peer[11]  lookupHopsSig:vector  ETV
vector 4302  Network.dyn_peer[11]  lookupStabilitySig:vector  ETV
vector 4303  Network.dyn_peer[11]  lookupTimeSig:vector  ETV
vector 4322  Network.dyn_peer[18]  lookupHopsSig:vector  ETV
vector 4323  Network.dyn_peer[18]  lookupStabilitySig:vector  ETV
vector 4324  Network.dyn_peer[18]  lookupTimeSig:vector  ETV
vector 4313  Network.dyn_peer[15]  lookupHopsSig:vector  ETV
vector 4314  Network.dyn_peer[15]  lookupStabilitySig:vector  ETV
vector 4315  Network.dyn_peer[15]  lookupTimeSig:vector  ETV
vector 4319  Network.dyn_peer[17]  lookupHopsSig:vector  ETV
vector 4320  Network.dyn_peer[17]  lookupStabilitySig:vector  ETV
vector 4321  Network.dyn_peer[17]  lookupTimeSig:vector  ETV
vector 4325  Network.dyn_peer[19]  lookupHopsSig:vector  ETV
vector 4326  Network.dyn_peer[19]  lookupStabilitySig:vector  ETV
vector 4327  Network.dyn_peer[19]  lookupTimeSig:vector  ETV
vector 4331  Network.dyn_peer[21]  lookupHopsSig:vector  ETV
vector 4332  Network.dyn_peer[21]  lookupStabilitySig:vector  ETV
vector 4333  Network.dyn_peer[21]  lookupTimeSig:vector  ETV
vector 4334  Network.dyn_peer[22]  lookupHopsSig:vector  ETV
vector 4335  Network.dyn_peer[22]  lookupStabilitySig:vector  ETV
vector 4336  Network.dyn_peer[22]  lookupTimeSig:vector  ETV
vector 4337  Network.dyn_peer[23]  lookupHopsSig:vector  ETV
vector 4338  Network.dyn_peer[23]  lookupStabilitySig:vector  ETV
vector 4339  Network.dyn_peer[23]  lookupTimeSig:vector  ETV
vector 4328  Network.dyn_peer[20]  lookupHopsSig:vector  ETV
vector 4329  Network.dyn_peer[20]  lookupStabilitySig:vector  ETV
vector 4330  Network.dyn_peer[20]  lookupTimeSig:vector  ETV
vector 4340  Network.dyn_peer[24]  lookupHopsSig:vector  ETV
vector 4341  Network.dyn_peer[24]  lookupStabilitySig:vector  ETV
vector 4342  Network.dyn_peer[24]  lookupTimeSig:vector  ETV
vector 4346  Network.dyn_peer[26]  lookupHopsSig:vector  ETV
vector 4347  Network.dyn_peer[26]  lookupStabilitySig:vector  ETV
vector 4348  Network.dyn_peer[26]  lookupTimeSig:vector  ETV
vector 4349  Network.dyn_peer[27]  lookupHopsSig:vector  ETV
vector 4350  Network.dyn_peer[27]  lookupStabilitySig:vector  ETV
vector 4351  Network.dyn_peer[27]  lookupTimeSig:vector  ETV
vector 4352  Network.dyn_peer[28]  lookupHopsSig:vector  ETV
vector 4353  Network.dyn_peer[28]  lookupStabilitySig:vector  ETV
vector 4354  Network.dyn_peer[28]  lookupTimeSig:vector  ETV
vector 4343  Network.dyn_peer[25]  lookupHopsSig:vector  ETV
vector 4344  Network.dyn_peer[25]  lookupStabilitySig:vector  ETV
vector 4345  Network.dyn_peer[25]  lookupTimeSig:vector  ETV
vector 4355  Network.dyn_peer[29]  lookupHopsSig:vector  ETV
vector 4356  Network.dyn_peer[29]  lookupStabilitySig:vector  ETV
vector 4357  Network.dyn_peer[29]  lookupTimeSig:vector  ETV
vector 4361  Network.dyn_peer[31]  lookupHopsSig:vector  ETV
vector 4362  Network.dyn_peer[31]  lookupStabilitySig:vector  ETV
vector 4363  Network.dyn_peer[31]  lookupTimeSig:vector  ETV
vector 4358  Network.dyn_peer[30]  lookupHopsSig:vector  ETV
vector 4359  Network.dyn_peer[30]  lookupStabilitySig:vector  ETV
vector 4360  Network.dyn_peer[30]  lookupTimeSig:vector  ETV
4268	42	20.3	2
4268	71	20.6	2
4268	111	20.802029375901	1
4268	167	21.016707833836	1
4268	279	21.423818790694	3
4268	1285	23.8	2
4268	1379	24	1
4268	1481	24.204056858769	1
4268	1528	24.314500705244	1
4268	2522	26.3	3
4268	2751	26.8	4
4268	2840	27.003084005059	1
4268	3132	27.611886291508	5
4268	4542	30	13
4268	4805	30.5	4
4268	4950	30.800465696093	2
4268	5076	31.009405732911	1
4268	5124	31.117023639037	1
4268	5220	31.335849205966	4
4268	6268	33.6	2
4268	6525	34.1	4
4268	6725	34.507975486134	4
4268	7739	36.7	1
4268	8120	37.6	9
4268	8312	38.005357297651	3
4268	8396	38.141773888788	2
4268	8546	38.408789280577	2
4268	9682	40.7	6
4268	9837	41.1	3
4268	9913	41.225641606124	3
4268	10069	41.504656985482	3
4268	10136	41.644073053476	3
4268	10157	41.7001	3
4268	10163	41.70632282133	2
4268	11042	43.6	0
4268	11135	43.8	1
4268	11204	44.002348937203	1
4268	11286	44.206576533656	1
4268	12273	46.2	2
4268	12517	46.7	4
4268	12527	46.707896305476	2
4268	12533	46.712027491349	1
4268	12666	46.918644529121	1
4268	12701	47.005351807332	2
4268	12710	47.021656593787	1
4268	12858	47.312377875476	2
4268	14023	49.5	6
4268	14188	49.9	3
4268	14411	50.402996945818	5
4268	14513	50.605910977922	1
4268	15729	53.1	6
4268	16034	53.6	4
4268	16163	53.917643932599	5
4268	17534	56.7	11
4268	17623	56.9	1
4268	17756	57.205595761241	2
4268	17860	57.507992210133	2
4268	18748	59.5	1
4268	19012	60	5
4268	19135	60.213931330706	4
4268	19156	60.229835055677	4
4268	19165	60.303448427726	2
4268	20116	62.4	1
4268	20296	62.7	2
4268	20509	63.009167802466	2
4268	20709	63.413495475111	3
4268	22067	66.2	9
4268	22231	66.5	2
4268	22501	67.009543434524	4
4268	23590	69.2	4
4268	23791	69.6	3
4268	24005	70.004146799878	3
4268	25019	72.2	1
4268	25183	72.5	2
4268	26327	75.1	1
4268	26425	75.3	1
4268	27500	77.6	0
4268	27665	78.1	4
4268	28618	80.1	1
4268	28742	80.4	2
4268	28913	80.802059647298	4
4268	29042	81.031595243393	1
4268	29232	81.5421070984	4
4268	29296	81.745288295875	1
4268	29375	81.905982423263	3
4268	30288	83.6	0
4268	30423	83.8	1
4268	30565	84.107857920005	2
4268	30781	84.50798098659	2
4268	30935	84.807903709515	7
4268	30938	84.80818098659	2
4268	30944	84.809659693544	2
4268	32372	87.7	12
4268	32472	87.9	1
4268	32553	88.109131835757	1
4268	32749	88.612072807488	2
4268	33695	90.4	1
4268	34069	91.107039301465	7
4268	34284	91.607392880178	4
4268	35293	93.6	2
4268	35436	94.009844058738	3
4268	36544	96.2	3
4268	36801	96.7	4
4268	36955	97.008776209559	2
4268	38215	99.6	5
4268	38446	100	3
4268	39584	102.2	3
4268	39675	102.4	1
4268	39911	102.708483121818	2
4268	41081	105	6
4268	41152	105.2	1
4268	41374	105.605946986314	3
4268	41488	105.818897735654	1
4268	42387	107.5	0
4268	42728	108.2	7
4268	43026	108.805267554563	5
4268	44139	111	3
4268	44403	111.5	4
4268	44497	111.702275793568	1
4268	44686	112.010251174065	3
4268	45539	113.8	0
4268	45691	114.1	2
4268	46013	114.608286371419	1
4268	46146	114.811743253524	2
4268	46195	114.911801866469	9
4268	47185	117	1
4268	47312	117.2	1
4268	47521	117.60677337367	3
4268	47736	118.016319038368	3
4268	48712	120	2
4268	48994	120.6	5
4268	49219	121.004290501796	3
4268	49329	121.206946029089	1
4268	49397	121.309738716295	1
4268	50542	123.6	4
4268	50661	123.9	2
4268	50786	124.105115381025	1
4268	50996	124.514708291317	3
4268	51167	124.922757968918	3
4268	52130	127	2
4268	52327	127.5	4
4268	52521	128.007920230638	4
4268	52607	128.210661534182	1
4268	52744	128.422005967721	1
4268	53795	130.4	1
4268	53914	130.6	1
4268	54100	131.007422967695	3
4268	54138	131.124279684122	3
4268	55489	134	10
4268	55680	134.4	3
4268	56247	135.308504306024	10
4268	56314	135.408097073207	5
4268	56491	135.713796694099	3
4268	57493	137.8	2
4268	57602	138	1
4268	57769	138.400388639187	3
4268	58943	140.8	6
4268	59372	141.809592913044	9
4268	59659	142.217495594254	3
4268	59754	142.411301558467	3
4268	59778	142.426684974045	1
4268	60861	144.9	2
4268	62131	147.7	5
4268	62282	148.1	3
4268	62389	148.308812162049	1
4268	63494	150.4	4
4268	63601	150.7	2
4268	63647	150.807483720958	1
4268	63801	151.111185046666	2
4268	64835	153.4	2
4268	64957	153.7	3
4268	65067	154.001166236386	2
4268	65228	154.402501075879	3
4268	66361	156.6	5
4268	66648	157.3	6
4268	66952	157.847569200387	1
4268	66976	157.902616962208	5
4268	67299	158.409636809189	4
4268	67322	158.451163650494	6
4268	67455	158.654371787832	7
4268	68588	160.8	2
4268	68677	161	1
4268	69008	161.719443433272	3
4268	69046	161.811517804871	8
4268	70121	164.1	4
4268	70318	164.6	4
4268	70480	165.00731597528	3
4268	71639	167.1	4
4268	71700	167.2	0
4268	71966	167.807729613189	5
4268	72103	168.110974492527	2
4268	72201	168.32535877462	1
4268	72260	168.444113126019	1
4268	73263	170.5	1
4268	73344	170.7	1
4268	73468	171.004437625948	2
4268	73647	171.409955169211	3
4268	73916	171.910851570267	4
4268	73975	172.02274029748	4
4268	74859	174.1	2
4268	74962	174.4	2
4268	75124	174.805015414352	3
4268	75220	175.01077372319	1
4268	75300	175.212910179688	1
4268	75335	175.309785119828	2
4268	76229	177.3	0
4268	76327	177.5	1
4268	76392	177.61309141102	1
4268	76467	177.723241457009	0
4268	76584	177.941288742873	1
4268	76644	178.107452815535	4
4268	78051	180.7	8
4268	78144	180.9	1
4268	78431	181.408451564793	4
4268	79524	183.5	3
4268	79712	183.8	2
4268	79846	184.004185864969	1
4268	79984	184.309768838101	2
4268	80963	186.4	1
4268	81206	186.9	4
4268	82508	189.8	10
4268	82669	190.1	2
4268	82825	190.413316089307	2
4268	82944	190.623096608422	1
4268	83033	190.810538509174	1
4268	84052	192.9	2
4268	84233	193.3	3
4268	84393	193.600028730493	2
4268	84484	193.809776938969	1
4268	85446	195.8	2
4268	85564	196.1	2
4268	85695	196.407880273289	2
4268	85755	196.511056363451	2
4268	85816	196.616757008259	1
4268	85867	196.71505210901	2
4268	85915	196.805172491331	1
4268	85929	196.816962479157	1
4268	86819	198.6	1
4268	86956	198.92037551621	1
4268	87014	199.1	5
4268	88003	201.1	2
4268	88304	201.727562935324	4
4268	88315	201.8	8
4268	88462	202.133910532581	3
4268	89377	204.2	0
4268	89563	204.6	4
4268	89747	204.928393876191	2
4268	90827	207.2	2
4268	91132	207.9	6
4268	91181	208.017927046255	4
4268	92259	210.3	4
4268	92687	211.1	8
4268	92801	211.306252735122	1
4268	92850	211.40722664412	1
4268	93772	213.4	0
4268	93930	213.8	3
4268	94252	214.305048107211	5
4268	94358	214.513694705582	8
4268	94374	214.51492966355	1
4268	95361	216.7	1
4268	95466	217	2
4268	95551	217.209623823384	2
4268	95774	217.610355278949	6
4268	95863	217.803091215339	3
4268	95871	217.810543161713	3
4268	95873	217.810613810021	1
4268	96827	219.8	1
4268	97263	220.5	6
4268	98648	223	1
4268	98794	223.3	2
4268	98996	223.805346811031	4
4268	99118	224.015827184653	3
4268	99150	224.11390956329	2
4268	99296	224.318983886933	1
4268	99298	224.324457345796	1
4269	42	20.3	0.75
4269	71	20.6	0.75
4269	111	20.802029375901	0.875
4269	167	21.016707833836	0.875
4269	279	21.423818790694	0.625
4269	1285	23.8	0.75
4269	1379	24	0.875
4269	1481	24.204056858769	0.875
4269	1528	24.314500705244	0.875
4269	2522	26.3	0.625
4269	2751	26.8	0.5
4269	2840	27.003084005059	0.875
4269	3132	27.611886291508	0.375
4269	4542	30	-0.625
4269	4805	30.5	0.5
4269	4950	30.800465696093	0.75
4269	5076	31.009405732911	0.875
4269	5124	31.117023639037	0.88888888806105
4269	5220	31.335849205966	0.5
4269	6268	33.6	0.75
4269	6525	34.1	0.5
4269	6725	34.507975486134	0.5
4269	7739	36.7	0.875
4269	8120	37.6	-0.125
4269	8312	38.005357297651	0.625
4269	8396	38.141773888788	0.75
4269	8546	38.408789280577	0.75
4269	9682	40.7	0.25
4269	9837	41.1	0.625
4269	9913	41.225641606124	0.625
4269	10069	41.504656985482	0.625
4269	10136	41.644073053476	0.625
4269	10157	41.7001	0.625
4269	10163	41.70632282133	0.75
4269	11042	43.6	1
4269	11135	43.8	0.875
4269	11204	44.002348937203	0.875
4269	11286	44.206576533656	0.875
4269	12273	46.2	0.75
4269	12517	46.7	0.5
4269	12527	46.707896305476	0.75
4269	12533	46.712027491349	0.875
4269	12666	46.918644529121	0.875
4269	12701	47.005351807332	0.75
4269	12710	47.021656593787	0.875
4269	12858	47.312377875476	0.75
4269	14023	49.5	0.25
4269	14188	49.9	0.625
4269	14411	50.402996945818	0.375
4269	14513	50.605910977922	0.875
4269	15729	53.1	0.25
4269	16034	53.6	0.5
4269	16163	53.917643932599	0.375
4269	17534	56.7	-0.375
4269	17623	56.9	0.875
4269	17756	57.205595761241	0.75
4269	17860	57.507992210133	0.75
4269	18748	59.5	0.875
4269	19012	60	0.375
4269	19135	60.213931330706	0.5
4269	19156	60.229835055677	0.5
4269	19165	60.303448427726	0.75
4269	20116	62.4	0.875
4269	20296	62.7	0.75
4269	20509	63.009167802466	0.75
4269	20709	63.413495475111	0.625
4269	22067	66.2	-0.125
4269	22231	66.5	0.75
4269	22501	67.009543434524	0.5
4269	23590	69.2	0.5
4269	23791	69.6	0.625
4269	24005	70.004146799878	0.625
4269	25019	72.2	0.875
4269	25183	72.5	0.75
4269	26327	75.1	0.875
4269	26425	75.3	0.875
4269	27500	77.6	1
4269	27665	78.1	0.5
4269	28618	80.1	0.875
4269	28742	80.4	0.75
4269	28913	80.802059647298	0.5
4269	29042	81.031595243393	0.875
4269	29232	81.5421070984	0.5
4269	29296	81.745288295875	0.875
4269	29375	81.905982423263	0.625
4269	30288	83.6	1
4269	30423	83.8	0.875
4269	30565	84.107857920005	0.75
4269	30781	84.50798098659	0.75
4269	30935	84.807903709515	0.125
4269	30938	84.80818098659	0.75
4269	30944	84.809659693544	0.75
4269	32372	87.7	-0.5
4269	32472	87.9	0.875
4269	32553	88.109131835757	0.875
4269	32749	88.612072807488	0.75
4269	33695	90.4	0.875
4269	34069	91.107039301465	0.125
4269	34284	91.607392880178	0.5
4269	35293	93.6	0.75
4269	35436	94.009844058738	0.625
4269	36544	96.2	0.625
4269	36801	96.7	0.5
4269	36955	97.008776209559	0.75
4269	38215	99.6	0.375
4269	38446	100	0.625
4269	39584	102.2	0.625
4269	39675	102.4	0.875
4269	39911	102.708483121818	0.75
4269	41081	105	0.25
4269	41152	105.2	0.875
4269	41374	105.605946986314	0.625
4269	41488	105.818897735654	0.875
4269	42387	107.5	1
4269	42728	108.2	0.125
4269	43026	108.805267554563	0.375
4269	44139	111	0.625
4269	44403	111.5	0.5
4269	44497	111.702275793568	0.875
4269	44686	112.010251174065	0.625
4269	45539	113.8	1
4269	45691	114.1	0.75
4269	46013	114.608286371419	0.875
4269	46146	114.811743253524	0.75
4269	46195	114.911801866469	-0.125
4269	47185	117	0.875
4269	47312	117.2	0.875
4269	47521	117.60677337367	0.625
4269	47736	118.016319038368	0.625
4269	48712	120	0.75
4269	48994	120.6	0.375
4269	49219	121.004290501796	0.625
4269	49329	121.206946029089	0.875
4269	49397	121.309738716295	0.875
4269	50542	123.6	0.5
4269	50661	123.9	0.75
4269	50786	124.105115381025	0.875
4269	50996	124.514708291317	0.625
4269	51167	124.922757968918	0.625
4269	52130	127	0.75
4269	52327	127.5	0.5
4269	52521	128.007920230638	0.5
4269	52607	128.210661534182	0.875
4269	52744	128.422005967721	0.875
4269	53795	130.4	0.875
4269	53914	130.6	0.875
4269	54100	131.007422967695	0.625
4269	54138	131.124279684122	0.625
4269	55489	134	-0.25
4269	55680	134.4	0.625
4269	56247	135.308504306024	-0.25
4269	56314	135.408097073207	0.375
4269	56491	135.713796694099	0.625
4269	57493	137.8	0.75
4269	57602	138	0.875
4269	57769	138.400388639187	0.625
4269	58943	140.8	0.25
4269	59372	141.809592913044	-0.125
4269	59659	142.217495594254	0.625
4269	59754	142.411301558467	0.625
4269	59778	142.426684974045	0.875
4269	60861	144.9	0.75
4269	62131	147.7	0.375
4269	62282	148.1	0.625
4269	62389	148.308812162049	0.875
4269	63494	150.4	0.5
4269	63601	150.7	0.75
4269	63647	150.807483720958	0.875
4269	63801	151.111185046666	0.75
4269	64835	153.4	0.75
4269	64957	153.7	0.625
4269	65067	154.001166236386	0.75
4269	65228	154.402501075879	0.625
4269	66361	156.6	0.375
4269	66648	157.3	0.25
4269	66952	157.847569200387	0.875
4269	66976	157.902616962208	0.375
4269	67299	158.409636809189	0.5
4269	67322	158.451163650494	0.25
4269	67455	158.654371787832	0.125
4269	68588	160.8	0.75
4269	68677	161	0.875
4269	69008	161.719443433272	0.625
4269	69046	161.811517804871	0
4269	70121	164.1	0.5
4269	70318	164.6	0.5
4269	70480	165.00731597528	0.625
4269	71639	167.1	0.5
4269	71700	167.2	1
4269	71966	167.807729613189	0.375
4269	72103	168.110974492527	0.75
4269	72201	168.32535877462	0.875
4269	72260	168.444113126019	0.875
4269	73263	170.5	0.875
4269	73344	170.7	0.875
4269	73468	171.004437625948	0.75
4269	73647	171.409955169211	0.625
4269	73916	171.910851570267	0.5
4269	73975	172.02274029748	0.5
4269	74859	174.1	0.75
4269	74962	174.4	0.75
4269	75124	174.805015414352	0.625
4269	75220	175.01077372319	0.875
4269	75300	175.212910179688	0.875
4269	75335	175.309785119828	0.75
4269	76229	177.3	1
4269	76327	177.5	0.875
4269	76392	177.61309141102	0.875
4269	76467	177.723241457009	1
4269	76584	177.941288742873	0.875
4269	76644	178.107452815535	0.5
4269	78051	180.7	0
4269	78144	180.9	0.875
4269	78431	181.408451564793	0.5
4269	79524	183.5	0.625
4269	79712	183.8	0.75
4269	79846	184.004185864969	0.875
4269	79984	184.309768838101	0.75
4269	80963	186.4	0.875
4269	81206	186.9	0.5
4269	82508	189.8	-0.25
4269	82669	190.1	0.75
4269	82825	190.413316089307	0.75
4269	82944	190.623096608422	0.875
4269	83033	190.810538509174	0.875
4269	84052	192.9	0.75
4269	84233	193.3	0.625
4269	84393	193.600028730493	0.75
4269	84484	193.809776938969	0.875
4269	85446	195.8	0.75
4269	85564	196.1	0.75
4269	85695	196.407880273289	0.75
4269	85755	196.511056363451	0.75
4269	85816	196.616757008259	0.875
4269	85867	196.71505210901	0.75
4269	85915	196.805172491331	0.875
4269	85929	196.816962479157	0.875
4269	86819	198.6	0.875
4269	86956	198.92037551621	0.875
4269	87014	199.1	0.375
4269	88003	201.1	0.75
4269	88304	201.727562935324	0.5
4269	88315	201.8	0
4269	88462	202.133910532581	0.625
4269	89377	204.2	1
4269	89563	204.6	0.5
4269	89747	204.928393876191	0.75
4269	90827	207.2	0.75
4269	91132	207.9	0.25
4269	91181	208.017927046255	0.5
4269	92259	210.3	0.5
4269	92687	211.1	0
4269	92801	211.306252735122	0.875
4269	92850	211.40722664412	0.875
4269	93772	213.4	1
4269	93930	213.8	0.625
4269	94252	214.305048107211	0.375
4269	94358	214.513694705582	0
4269	94374	214.51492966355	0.875
4269	95361	216.7	0.875
4269	95466	217	0.75
4269	95551	217.209623823384	0.75
4269	95774	217.610355278949	0.25
4269	95863	217.803091215339	0.625
4269	95871	217.810543161713	0.625
4269	95873	217.810613810021	0.875
4269	96827	219.8	0.875
4269	97263	220.5	0.25
4269	98648	223	0.875
4269	98794	223.3	0.75
4269	98996	223.805346811031	0.5
4269	99118	224.015827184653	0.625
4269	99150	224.11390956329	0.75
4269	99296	224.318983886933	0.875
4269	99298	224.324457345796	0.875
4270	42	20.3	0.2
4270	71	20.6	0.3
4270	111	20.802029375901	0.2
4270	167	21.016707833836	0.2
4270	279	21.423818790694	0.4
4270	1285	23.8	0.2
4270	1379	24	0.2
4270	1481	24.204056858769	0.2
4270	1528	24.314500705244	0.2
4270	2522	26.3	0.2
4270	2751	26.8	0.5
4270	2840	27.003084005059	0.2
4270	3132	27.611886291508	0.6
4270	4542	30	1
4270	4805	30.5	0.5
4270	4950	30.800465696093	0.3
4270	5076	31.009405732911	0.2
4270	5124	31.117023639037	0.2
4270	5220	31.335849205966	0.4
4270	6268	33.6	0.2
4270	6525	34.1	0.5
4270	6725	34.507975486134	0.5
4270	7739	36.7	0.1
4270	8120	37.6	0.9
4270	8312	38.005357297651	0.4
4270	8396	38.141773888788	0.3
4270	8546	38.408789280577	0.3
4270	9682	40.7	0.5
4270	9837	41.1	0.4
4270	9913	41.225641606124	0.4
4270	10069	41.504656985482	0.4
4270	10136	41.644073053476	0.4
4270	10157	41.7001	0.4
4270	10163	41.70632282133	0.2
4270	11042	43.6	0
4270	11135	43.8	0.2
4270	11204	44.002348937203	0.2
4270	11286	44.206576533656	0.2
4270	12273	46.2	0.2
4270	12517	46.7	0.5
4270	12527	46.707896305476	0.2
4270	12533	46.712027491349	0.2
4270	12666	46.918644529121	0.2
4270	12701	47.005351807332	0.3
4270	12710	47.021656593787	0.2
4270	12858	47.312377875476	0.3
4270	14023	49.5	0.6
4270	14188	49.9	0.4
4270	14411	50.402996945818	0.5
4270	14513	50.605910977922	0.2
4270	15729	53.1	0.6
4270	16034	53.6	0.5
4270	16163	53.917643932599	0.5
4270	17534	56.7	0.9
4270	17623	56.9	0.2
4270	17756	57.205595761241	0.3
4270	17860	57.507992210133	0.3
4270	18748	59.5	0.1
4270	19012	60	0.5
4270	19135	60.213931330706	0.5
4270	19156	60.229835055677	0.5
4270	19165	60.303448427726	0.3
4270	20116	62.4	0.1
4270	20296	62.7	0.3
4270	20509	63.009167802466	0.3
4270	20709	63.413495475111	0.4
4270	22067	66.2	0.8
4270	22231	66.5	0.3
4270	22501	67.009543434524	0.5
4270	23590	69.2	0.4
4270	23791	69.6	0.4
4270	24005	70.004146799878	0.4
4270	25019	72.2	0.1
4270	25183	72.5	0.3
4270	26327	75.1	0.1
4270	26425	75.3	0.2
4270	27500	77.6	0
4270	27665	78.1	0.5
4270	28618	80.1	0.1
4270	28742	80.4	0.3
4270	28913	80.802059647298	0.4
4270	29042	81.031595243393	0.2
4270	29232	81.5421070984	0.5
4270	29296	81.745288295875	0.2
4270	29375	81.905982423263	0.4
4270	30288	83.6	0
4270	30423	83.8	0.2
4270	30565	84.107857920005	0.3
4270	30781	84.50798098659	0.3
4270	30935	84.807903709515	0.7
4270	30938	84.80818098659	0.3
4270	30944	84.809659693544	0.3
4270	32372	87.7	1
4270	32472	87.9	0.2
4270	32553	88.109131835757	0.2
4270	32749	88.612072807488	0.3
4270	33695	90.4	0.1
4270	34069	91.107039301465	0.7
4270	34284	91.607392880178	0.5
4270	35293	93.6	0.2
4270	35436	94.009844058738	0.4
4270	36544	96.2	0.3
4270	36801	96.7	0.5
4270	36955	97.008776209559	0.3
4270	38215	99.6	0.5
4270	38446	100	0.4
4270	39584	102.2	0.3
4270	39675	102.4	0.2
4270	39911	102.708483121818	0.3
4270	41081	105	0.5
4270	41152	105.2	0.2
4270	41374	105.605946986314	0.4
4270	41488	105.818897735654	0.2
4270	42387	107.5	0
4270	42728	108.2	0.7
4270	43026	108.805267554563	0.6
4270	44139	111	0.3
4270	44403	111.5	0.5
4270	44497	111.702275793568	0.2
4270	44686	112.010251174065	0.3
4270	45539	113.8	0
4270	45691	114.1	0.3
4270	46013	114.608286371419	0.2
4270	46146	114.811743253524	0.3
4270	46195	114.911801866469	0.8
4270	47185	117	0.1
4270	47312	117.2	0.2
4270	47521	117.60677337367	0.4
4270	47736	118.016319038368	0.4
4270	48712	120	0.2
4270	48994	120.6	0.6
4270	49219	121.004290501796	0.4
4270	49329	121.206946029089	0.2
4270	49397	121.309738716295	0.2
4270	50542	123.6	0.4
4270	50661	123.9	0.3
4270	50786	124.105115381025	0.2
4270	50996	124.514708291317	0.4
4270	51167	124.922757968918	0.4
4270	52130	127	0.2
4270	52327	127.5	0.5
4270	52521	128.007920230638	0.5
4270	52607	128.210661534182	0.2
4270	52744	128.422005967721	0.2
4270	53795	130.4	0.1
4270	53914	130.6	0.2
4270	54100	131.007422967695	0.4
4270	54138	131.124279684122	0.4
4270	55489	134	0.9
4270	55680	134.4	0.4
4270	56247	135.308504306024	0.9
4270	56314	135.408097073207	0.5
4270	56491	135.713796694099	0.4
4270	57493	137.8	0.2
4270	57602	138	0.2
4270	57769	138.400388639187	0.4
4270	58943	140.8	0.5
4270	59372	141.809592913044	1
4270	59659	142.217495594254	0.4
4270	59754	142.411301558467	0.3
4270	59778	142.426684974045	0.2
4270	60861	144.9	0.2
4270	62131	147.7	0.4
4270	62282	148.1	0.4
4270	62389	148.308812162049	0.2
4270	63494	150.4	0.3
4270	63601	150.7	0.3
4270	63647	150.807483720958	0.1
4270	63801	151.111185046666	0.3
4270	64835	153.4	0.2
4270	64957	153.7	0.3
4270	65067	154.001166236386	0.3
4270	65228	154.402501075879	0.4
4270	66361	156.6	0.5
4270	66648	157.3	0.7
4270	66952	157.847569200387	0.2
4270	66976	157.902616962208	0.6
4270	67299	158.409636809189	0.5
4270	67322	158.451163650494	0.6
4270	67455	158.654371787832	0.7
4270	68588	160.8	0.2
4270	68677	161	0.2
4270	69008	161.719443433272	0.4
4270	69046	161.811517804871	0.8
4270	70121	164.1	0.4
4270	70318	164.6	0.5
4270	70480	165.00731597528	0.4
4270	71639	167.1	0.3
4270	71700	167.2	0.1
4270	71966	167.807729613189	0.6
4270	72103	168.110974492527	0.3
4270	72201	168.32535877462	0.2
4270	72260	168.444113126019	0.2
4270	73263	170.5	0.1
4270	73344	170.7	0.2
4270	73468	171.004437625948	0.3
4270	73647	171.409955169211	0.4
4270	73916	171.910851570267	0.5
4270	73975	172.02274029748	0.5
4270	74859	174.1	0.2
4270	74962	174.4	0.3
4270	75124	174.805015414352	0.4
4270	75220	175.01077372319	0.2
4270	75300	175.212910179688	0.2
4270	75335	175.309785119828	0.3
4270	76229	177.3	0
4270	76327	177.5	0.2
4270	76392	177.61309141102	0.1
4270	76467	177.723241457009	0.1
4270	76584	177.941288742873	0.2
4270	76644	178.107452815535	0.5
4270	78051	180.7	0.8
4270	78144	180.9	0.2
4270	78431	181.408451564793	0.5
4270	79524	183.5	0.3
4270	79712	183.8	0.3
4270	79846	184.004185864969	0.2
4270	79984	184.309768838101	0.3
4270	80963	186.4	0.1
4270	81206	186.9	0.5
4270	82508	189.8	0.9
4270	82669	190.1	0.3
4270	82825	190.413316089307	0.3
4270	82944	190.623096608422	0.2
4270	83033	190.810538509174	0.2
4270	84052	192.9	0.2
4270	84233	193.3	0.4
4270	84393	193.600028730493	0.3
4270	84484	193.809776938969	0.2
4270	85446	195.8	0.2
4270	85564	196.1	0.3
4270	85695	196.407880273289	0.3
4270	85755	196.511056363451	0.3
4270	85816	196.616757008259	0.1
4270	85867	196.71505210901	0.3
4270	85915	196.805172491331	0.2
4270	85929	196.816962479157	0.2
4270	86819	198.6	0.1
4270	86956	198.92037551621	0.2
4270	87014	199.1	0.5
4270	88003	201.1	0.2
4270	88304	201.727562935324	0.5
4270	88315	201.8	0.7
4270	88462	202.133910532581	0.4
4270	89377	204.2	0
4270	89563	204.6	0.4
4270	89747	204.928393876191	0.3
4270	90827	207.2	0.2
4270	91132	207.9	0.7
4270	91181	208.017927046255	0.5
4270	92259	210.3	0.4
4270	92687	211.1	0.8
4270	92801	211.306252735122	0.2
4270	92850	211.40722664412	0.2
4270	93772	213.4	0
4270	93930	213.8	0.4
4270	94252	214.305048107211	0.5
4270	94358	214.513694705582	0.7
4270	94374	214.51492966355	0.2
4270	95361	216.7	0.1
4270	95466	217	0.3
4270	95551	217.209623823384	0.2
4270	95774	217.610355278949	0.6
4270	95863	217.803091215339	0.4
4270	95871	217.810543161713	0.4
4270	95873	217.810613810021	0.2
4270	96827	219.8	0.1
4270	97263	220.5	0.7
4270	98648	223	0.1
4270	98794	223.3	0.3
4270	98996	223.805346811031	0.5
4270	99118	224.015827184653	0.4
4270	99150	224.11390956329	0.3
4270	99296	224.318983886933	0.2
4270	99298	224.324457345796	0.2
4271	34	20.2	0
4271	55	20.405629499622	1
4271	80	20.607358448875	1
4271	141	20.911910341865	2
4271	188	21.117067716132	1
4271	1234	23.7	4
4271	1384	24	3
4271	2514	26.3	5
4271	2750	26.8	4
4271	2852	27.013764977715	1
4271	2955	27.214963628765	1
4271	2958	27.215742541294	1
4271	3038	27.411878192121	5
4271	3148	27.621756384655	1
4271	3217	27.722680234484	4
4271	3221	27.731969085583	4
4271	4655	30.2	10
4271	4854	30.6	3
4271	4884	30.617574681608	1
4271	5004	30.908725752886	2
4271	5031	30.927270125845	2
4271	6096	33.3	2
4271	6221	33.508562921802	1
4271	7430	36	5
4271	7503	36.2	1
4271	7656	36.503926240187	2
4271	8228	37.841673888788	3
4271	9226	39.7	2
4271	9592	40.411817444914	7
4271	9746	40.821715518218	3
4271	10753	42.9	2
4271	10889	43.3	3
4271	10967	43.433056316747	3
4271	10999	43.517981861677	3
4271	12059	45.8	3
4271	12212	46.1	3
4271	13818	49	12
4271	13907	49.2	1
4271	13979	49.401160909354	1
4271	15116	51.9	6
4271	15259	52.2	2
4271	15451	52.600815088725	3
4271	15684	53.008622440785	3
4271	15687	53.009130957258	3
4271	15757	53.108733777929	6
4271	15867	53.312063753761	3
4271	15874	53.316016192704	3
4271	15993	53.514945081472	1
4271	17131	55.8	2
4271	17311	56.2	3
4271	17437	56.502433918288	2
4271	17439	56.505886010951	2
4271	18376	58.7	1
4271	18659	59.307607918607	5
4271	18973	59.911090489571	6
4271	19191	60.318187975226	3
4271	19194	60.320066392643	3
4271	20300	62.7	3
4271	20550	63.1	3
4271	20700	63.401138135774	2
4271	20779	63.608887222527	1
4271	21742	65.7	2
4271	22007	66.1	3
4271	22190	66.405283284524	2
4271	22197	66.407528426411	1
4271	22354	66.710934384843	2
4271	22359	66.712920544919	2
4271	23319	68.6	1
4271	23630	69.3	7
4271	23852	69.708113767643	3
4271	23854	69.708275078132	3
4271	24838	71.8	1
4271	25117	72.4	6
4271	25998	74.4	2
4271	26228	74.9	4
4271	26333	75.106206259748	2
4271	26456	75.323546202964	1
4271	27495	77.6	3
4271	27564	77.800047579691	1
4271	27755	78.305166714782	5
4271	27874	78.512084226187	2
4271	27878	78.513610440384	2
4271	28042	78.81660173886	2
4271	28049	78.81980748819	2
4271	29090	81.2	4
4271	29150	81.4	1
4271	29258	81.606272526797	2