version 2
run Stability-16-20130528-00:51:15-21385
attr configname Stability
attr datetime 20130528-00:51:15
attr experiment Stability
attr inifile omnetpp.ini
attr iterationvars $0=1e5
attr iterationvars2 "$0=1e5, $repetition=6"
attr measurement $0=1e5
attr network Network
attr processid 21385
attr repetition 6
attr replication #6
attr resultdir results
attr runnumber 16
attr seedset 16

vector 1648  Network.churner  inGoingSizeSig:vector  ETV
vector 1552  Network.dyn_peer[0]  lookupHopsSig:vector  ETV
vector 1553  Network.dyn_peer[0]  lookupStabilitySig:vector  ETV
vector 1554  Network.dyn_peer[0]  lookupTimeSig:vector  ETV
vector 1555  Network.dyn_peer[1]  lookupHopsSig:vector  ETV
vector 1556  Network.dyn_peer[1]  lookupStabilitySig:vector  ETV
vector 1557  Network.dyn_peer[1]  lookupTimeSig:vector  ETV
vector 1558  Network.dyn_peer[2]  lookupHopsSig:vector  ETV
vector 1559  Network.dyn_peer[2]  lookupStabilitySig:vector  ETV
vector 1560  Network.dyn_peer[2]  lookupTimeSig:vector  ETV
vector 1561  Network.dyn_peer[3]  lookupHopsSig:vector  ETV
vector 1562  Network.dyn_peer[3]  lookupStabilitySig:vector  ETV
vector 1563  Network.dyn_peer[3]  lookupTimeSig:vector  ETV
vector 1564  Network.dyn_peer[4]  lookupHopsSig:vector  ETV
vector 1565  Network.dyn_peer[4]  lookupStabilitySig:vector  ETV
vector 1566  Network.dyn_peer[4]  lookupTimeSig:vector  ETV
vector 1567  Network.dyn_peer[5]  lookupHopsSig:vector  ETV
vector 1568  Network.dyn_peer[5]  lookupStabilitySig:vector  ETV
vector 1569  Network.dyn_peer[5]  lookupTimeSig:vector  ETV
vector 1570  Network.dyn_peer[6]  lookupHopsSig:vector  ETV
vector 1571  Network.dyn_peer[6]  lookupStabilitySig:vector  ETV
vector 1572  Network.dyn_peer[6]  lookupTimeSig:vector  ETV
vector 1573  Network.dyn_peer[7]  lookupHopsSig:vector  ETV
vector 1574  Network.dyn_peer[7]  lookupStabilitySig:vector  ETV
vector 1575  Network.dyn_peer[7]  lookupTimeSig:vector  ETV
vector 1576  Network.dyn_peer[8]  lookupHopsSig:vector  ETV
vector 1577  Network.dyn_peer[8]  lookupStabilitySig:vector  ETV
vector 1578  Network.dyn_peer[8]  lookupTimeSig:vector  ETV
vector 1579  Network.dyn_peer[9]  lookupHopsSig:vector  ETV
vector 1580  Network.dyn_peer[9]  lookupStabilitySig:vector  ETV
vector 1581  Network.dyn_peer[9]  lookupTimeSig:vector  ETV
vector 1582  Network.dyn_peer[10]  lookupHopsSig:vector  ETV
vector 1583  Network.dyn_peer[10]  lookupStabilitySig:vector  ETV
vector 1584  Network.dyn_peer[10]  lookupTimeSig:vector  ETV
vector 1585  Network.dyn_peer[11]  lookupHopsSig:vector  ETV
vector 1586  Network.dyn_peer[11]  lookupStabilitySig:vector  ETV
vector 1587  Network.dyn_peer[11]  lookupTimeSig:vector  ETV
vector 1588  Network.dyn_peer[12]  lookupHopsSig:vector  ETV
vector 1589  Network.dyn_peer[12]  lookupStabilitySig:vector  ETV
vector 1590  Network.dyn_peer[12]  lookupTimeSig:vector  ETV
vector 1591  Network.dyn_peer[13]  lookupHopsSig:vector  ETV
vector 1592  Network.dyn_peer[13]  lookupStabilitySig:vector  ETV
vector 1593  Network.dyn_peer[13]  lookupTimeSig:vector  ETV
vector 1594  Network.dyn_peer[14]  lookupHopsSig:vector  ETV
vector 1595  Network.dyn_peer[14]  lookupStabilitySig:vector  ETV
vector 1596  Network.dyn_peer[14]  lookupTimeSig:vector  ETV
vector 1597  Network.dyn_peer[15]  lookupHopsSig:vector  ETV
vector 1598  Network.dyn_peer[15]  lookupStabilitySig:vector  ETV
vector 1599  Network.dyn_peer[15]  lookupTimeSig:vector  ETV
vector 1600  Network.dyn_peer[16]  lookupHopsSig:vector  ETV
vector 1601  Network.dyn_peer[16]  lookupStabilitySig:vector  ETV
vector 1602  Network.dyn_peer[16]  lookupTimeSig:vector  ETV
vector 1603  Network.dyn_peer[17]  lookupHopsSig:vector  ETV
vector 1604  Network.dyn_peer[17]  lookupStabilitySig:vector  ETV
vector 1605  Network.dyn_peer[17]  lookupTimeSig:vector  ETV
vector 1606  Network.dyn_peer[18]  lookupHopsSig:vector  ETV
vector 1607  Network.dyn_peer[18]  lookupStabilitySig:vector  ETV
vector 1608  Network.dyn_peer[18]  lookupTimeSig:vector  ETV
vector 1609  Network.dyn_peer[19]  lookupHopsSig:vector  ETV
vector 1610  Network.dyn_peer[19]  lookupStabilitySig:vector  ETV
vector 1611  Network.dyn_peer[19]  lookupTimeSig:vector  ETV
vector 1612  Network.dyn_peer[20]  lookupHopsSig:vector  ETV
vector 1613  Network.dyn_peer[20]  lookupStabilitySig:vector  ETV
vector 1614  Network.dyn_peer[20]  lookupTimeSig:vector  ETV
vector 1615  Network.dyn_peer[21]  lookupHopsSig:vector  ETV
vector 1616  Network.dyn_peer[21]  lookupStabilitySig:vector  ETV
vector 1617  Network.dyn_peer[21]  lookupTimeSig:vector  ETV
vector 1618  Network.dyn_peer[22]  lookupHopsSig:vector  ETV
vector 1619  Network.dyn_peer[22]  lookupStabilitySig:vector  ETV
vector 1620  Network.dyn_peer[22]  lookupTimeSig:vector  ETV
vector 1621  Network.dyn_peer[23]  lookupHopsSig:vector  ETV
vector 1622  Network.dyn_peer[23]  lookupStabilitySig:vector  ETV
vector 1623  Network.dyn_peer[23]  lookupTimeSig:vector  ETV
vector 1624  Network.dyn_peer[24]  lookupHopsSig:vector  ETV
vector 1625  Network.dyn_peer[24]  lookupStabilitySig:vector  ETV
vector 1626  Network.dyn_peer[24]  lookupTimeSig:vector  ETV
vector 1627  Network.dyn_peer[25]  lookupHopsSig:vector  ETV
vector 1628  Network.dyn_peer[25]  lookupStabilitySig:vector  ETV
vector 1629  Network.dyn_peer[25]  lookupTimeSig:vector  ETV
vector 1630  Network.dyn_peer[26]  lookupHopsSig:vector  ETV
vector 1631  Network.dyn_peer[26]  lookupStabilitySig:vector  ETV
vector 1632  Network.dyn_peer[26]  lookupTimeSig:vector  ETV
vector 1633  Network.dyn_peer[27]  lookupHopsSig:vector  ETV
vector 1634  Network.dyn_peer[27]  lookupStabilitySig:vector  ETV
vector 1635  Network.dyn_peer[27]  lookupTimeSig:vector  ETV
vector 1636  Network.dyn_peer[28]  lookupHopsSig:vector  ETV
vector 1637  Network.dyn_peer[28]  lookupStabilitySig:vector  ETV
vector 1638  Network.dyn_peer[28]  lookupTimeSig:vector  ETV
vector 1639  Network.dyn_peer[29]  lookupHopsSig:vector  ETV
vector 1640  Network.dyn_peer[29]  lookupStabilitySig:vector  ETV
vector 1641  Network.dyn_peer[29]  lookupTimeSig:vector  ETV
vector 1642  Network.dyn_peer[30]  lookupHopsSig:vector  ETV
vector 1643  Network.dyn_peer[30]  lookupStabilitySig:vector  ETV
vector 1644  Network.dyn_peer[30]  lookupTimeSig:vector  ETV
vector 1645  Network.dyn_peer[31]  lookupHopsSig:vector  ETV
vector 1646  Network.dyn_peer[31]  lookupStabilitySig:vector  ETV
vector 1647  Network.dyn_peer[31]  lookupTimeSig:vector  ETV
1552	32	120.2	2
1552	36	120.5	2
1552	41	120.715283310626	1
1552	47	121.032015597333	2
1552	1062	3320.1	1
1552	1067	3320.402234295704	2
1552	1071	3320.609982261615	1
1552	1077	3320.921716950287	2
1552	2124	6520.2	2
1552	2128	6520.5	2
1552	2132	6520.702451163467	1
1552	2141	6520.91818220587	1
1552	3168	9720.1	1
1552	3173	9720.407325933922	2
1552	3177	9720.608573391187	1
1552	3183	9720.825185242089	1
1552	4237	12920.1	1
1552	4241	12920.4	2
1552	4245	12920.603920323578	1
1552	4249	12920.807358431089	1
1552	5279	16120.1	1
1552	5282	16120.3	1
1552	5287	16120.503024091945	1
1552	5293	16120.708356785863	1
1552	6311	19320.2	2
1552	6315	19320.5	2
1552	6321	19320.814706884429	2
1552	6327	19321.030615163808	1
1552	7348	22520.2	2
1552	7351	22520.4	1
1552	7355	22520.609803015482	1
1552	7359	22520.818253987191	1
1552	8381	25720.1	1
1552	8384	25720.3	1
1552	8388	25720.500392266432	1
1552	8395	25720.81143289355	2
1552	9409	28920.2	2
1552	9413	28920.409248594704	1
1552	9418	28920.716677417661	2
1552	9422	28920.920075987031	1
1552	10422	32120.1	1
1552	10425	32120.3	1
1552	10429	32120.503046548715	1
1552	10435	32120.721026653603	1
1552	11474	35320.2	2
1552	11477	35320.4	1
1552	11481	35320.601124304691	1
1552	11486	35320.812988321496	1
1552	12521	38520.1	1
1552	12524	38520.3	1
1552	12529	38520.600369152983	2
1552	12533	38520.806069753612	1
1552	13562	41720.1	1
1552	13566	41720.4	2
1552	13570	41720.609142149796	1
1552	13577	41720.92824209417	2
1552	14620	44920.1	1
1552	14623	44920.3	1
1552	14629	44920.600184287896	2
1552	14634	44920.814683717246	1
1552	15638	48120.1	1
1552	15642	48120.4	2
1552	15646	48120.603083017482	1
1552	15651	48120.905717891163	2
1552	16672	51320	0
1552	16676	51320.3	2
1552	16681	51320.608222310864	2
1552	16685	51320.80985382446	1
1552	17698	54520.2	2
1552	17701	54520.4	1
1552	17705	54520.604129983806	1
1552	17712	54520.819243425089	1
1552	18735	57720.1	1
1552	18740	57720.302296964755	1
1552	18745	57720.603879447915	2
1552	18750	57720.816655571414	1
1552	19802	60920.2	2
1552	19806	60920.5	2
1552	19811	60920.800914883632	2
1552	19815	60921.002408669434	1
1552	20812	64120.2	2
1552	20816	64120.405389872826	1
1552	20822	64120.620623146017	1
1552	20826	64120.823343310408	1
1552	21857	67320.2	2
1552	21860	67320.4	1
1552	21868	67320.72319433403	2
1552	21877	67321.046889279275	2
1552	22920	70520.2	2
1552	22925	70520.506231669359	2
1552	22929	70520.710603487998	1
1552	22933	70520.920167525234	1
1552	23948	73720.2	2
1552	23951	73720.4	1
1552	23955	73720.602859300288	1
1552	23960	73720.910378981907	2
1552	24967	76920.2	2
1552	24971	76920.5	2
1552	24976	76920.802008279026	2
1552	24980	76921.006939464385	1
1552	25977	80120.2	2
1552	25983	80120.416235341663	1
1552	25989	80120.631393176892	1
1552	25995	80120.848185410118	1
1552	27019	83320	0
1552	27023	83320.206291798015	1
1552	27028	83320.51302146928	2
1552	27033	83320.718531229437	1
1552	28056	86520.1	1
1552	28059	86520.3	1
1552	28064	86520.608371391377	2
1552	28071	86520.827942707272	1
1552	29076	89720.2	2
1552	29079	89720.4	1
1552	29085	89720.621032026632	1
1552	29090	89720.924278606901	2
1552	30086	92920.1	1
1552	30090	92920.302092768629	1
1552	30094	92920.505353763485	1
1552	30099	92920.815078466382	2
1552	31104	96120	0
1552	31107	96120.2	1
1552	31112	96120.502317196319	2
1552	31116	96120.703855147126	1
1552	32139	99320.1	1
1552	32142	99320.3	1
1552	32147	99320.609213010352	2
1552	32155	99320.845922464656	1
1552	33194	102520.2	2
1552	33199	102520.503127590762	2
1552	33205	102520.808499812091	2
1552	33212	102521.029880277558	1
1552	34260	105720.1	1
1552	34263	105720.3	1
1552	34271	105720.536667476725	1
1552	34279	105720.760681961912	1
1552	35274	108920.2	2
1552	35277	108920.4	1
1552	35281	108920.608969750301	1
1552	35285	108920.817865605739	1
1552	36269	112120.1	1
1552	36272	112120.3	1
1552	36278	112120.514049793636	1
1552	36283	112120.725269667092	1
1552	37292	115320.1	1
1552	37295	115320.3	1
1552	37300	115320.512573565169	1
1552	37306	115320.735331899093	1
1552	38306	118520.2	2
1552	38309	118520.4	1
1552	38315	118520.706606864467	2
1552	38326	118521.059291866923	2
1552	39361	121720.1	1
1552	39367	121720.4144555461	2
1552	39372	121720.723779524258	2
1552	39376	121720.933558467287	1
1552	40395	124920.2	2
1552	40400	124920.505909313086	2
1552	40405	124920.711125356574	1
1552	40412	124921.024828613803	2
1552	41429	128120.2	2
1552	41433	128120.5	2
1552	41438	128120.712826345701	1
1552	41449	128120.95201533969	1
1552	42468	131320.2	2
1552	42472	131320.5	2
1552	42477	131320.715097886763	1
1552	42482	131320.919448302212	1
1552	43476	134520	0
1552	43480	134520.3	2
1552	43486	134520.514810968701	1
1552	43490	134520.716109509643	1
1552	44507	137720.2	2
1552	44511	137720.5	2
1552	44516	137720.710557860061	1
1552	44520	137720.911118306202	1
1552	45541	140920.2	2
1552	45545	140920.5	2
1552	45555	140920.733410455025	1
1552	45562	140920.942329384278	1
1552	46580	144120.1	1
1552	46584	144120.4	2
1552	46591	144120.622147464843	1
1552	46606	144120.969288550586	2
1552	47601	147320.1	1
1552	47604	147320.3	1
1552	47608	147320.508580913008	1
1552	47613	147320.718074371136	1
1552	48661	150520.1	1
1552	48664	150520.3	1
1552	48670	150520.608221520436	2
1552	48689	150520.981968805592	2
1552	49698	153720.1	1
1552	49701	153720.3	1
1552	49706	153720.511066362391	1
1552	49722	153720.768200524076	1
1552	50779	156920.1	1
1552	50783	156920.302301796209	1
1552	50788	156920.606438305913	2
1552	50792	156920.809548692279	1
1552	51789	160120.2	2
1552	51792	160120.4	1
1552	51796	160120.602631109212	1
1552	51801	160120.816952049873	1
1552	52829	163320.2	2
1552	52840	163320.449274021019	1
1552	52845	163320.656384954717	1
1552	52849	163320.856733554125	1
1552	53867	166520.2	2
1552	53870	166520.4	1
1552	53875	166520.703671501881	2
1552	53881	166520.918039967332	1
1552	54919	169720.2	2
1552	54924	169720.500164603565	2
1552	54930	169720.71118909171	1
1552	54936	169720.925372797672	1
1552	55927	172920.1	1
1552	55931	172920.4	2
1552	55935	172920.608341313279	1
1552	55941	172920.92314650209	2
1552	56969	176120.2	2
1552	56974	176120.508080807663	2
1552	56979	176120.719268845586	1
1552	56986	176120.943253425282	1
1552	58013	179320.2	2
1552	58017	179320.5	2
1552	58022	179320.710767749552	1
1552	58027	179320.920924930319	1
1552	59107	182520.1	1
1552	59111	182520.4	2
1552	59116	182520.613881846509	1
1552	59124	182520.835192239298	1
1552	60178	185720.1	1
1552	60181	185720.3	1
1552	60185	185720.505596148148	1
1552	60192	185720.721563158641	1
1552	61247	188920.2	2
1552	61251	188920.405499438415	1
1552	61257	188920.714838685655	2
1552	61264	188920.936974272973	1
1552	62273	192120.1	1
1552	62278	192120.317235879024	1
1552	62283	192120.622197355908	2
1552	62289	192120.837694478681	1
1552	63329	195320.2	2
1552	63332	195320.4	1
1552	63336	195320.604307546112	1
1552	63340	195320.811253696029	1
1552	64364	198520	0
1552	64368	198520.3	2
1552	64372	198520.505721992054	1
1552	64376	198520.710439466095	1
1552	65369	201720.2	2
1552	65373	201720.407544830222	1
1552	65385	201720.7571597617	2
1552	65392	201720.986928592486	1
1553	32	120.2	0.75
1553	36	120.5	0.75
1553	41	120.715283310626	0.875
1553	47	121.032015597333	0.75
1553	1062	3320.1	0.875
1553	1067	3320.402234295704	0.75
1553	1071	3320.609982261615	0.875
1553	1077	3320.921716950287	0.75
1553	2124	6520.2	0.75
1553	2128	6520.5	0.75
1553	2132	6520.702451163467	0.875
1553	2141	6520.91818220587	0.875
1553	3168	9720.1	0.875
1553	3173	9720.407325933922	0.75
1553	3177	9720.608573391187	0.875
1553	3183	9720.825185242089	0.875
1553	4237	12920.1	0.875
1553	4241	12920.4	0.75
1553	4245	12920.603920323578	0.875
1553	4249	12920.807358431089	0.875
1553	5279	16120.1	0.875
1553	5282	16120.3	0.875
1553	5287	16120.503024091945	0.875
1553	5293	16120.708356785863	0.875
1553	6311	19320.2	0.75
1553	6315	19320.5	0.75
1553	6321	19320.814706884429	0.75
1553	6327	19321.030615163808	0.875
1553	7348	22520.2	0.75
1553	7351	22520.4	0.875
1553	7355	22520.609803015482	0.875
1553	7359	22520.818253987191	0.875
1553	8381	25720.1	0.875
1553	8384	25720.3	0.875
1553	8388	25720.500392266432	0.875
1553	8395	25720.81143289355	0.75
1553	9409	28920.2	0.75
1553	9413	28920.409248594704	0.875
1553	9418	28920.716677417661	0.75
1553	9422	28920.920075987031	0.875
1553	10422	32120.1	0.875
1553	10425	32120.3	0.875
1553	10429	32120.503046548715	0.875
1553	10435	32120.721026653603	0.875
1553	11474	35320.2	0.75
1553	11477	35320.4	0.875
1553	11481	35320.601124304691	0.875
1553	11486	35320.812988321496	0.875
1553	12521	38520.1	0.875
1553	12524	38520.3	0.875
1553	12529	38520.600369152983	0.75
1553	12533	38520.806069753612	0.875
1553	13562	41720.1	0.875
1553	13566	41720.4	0.75
1553	13570	41720.609142149796	0.875
1553	13577	41720.92824209417	0.75
1553	14620	44920.1	0.875
1553	14623	44920.3	0.875
1553	14629	44920.600184287896	0.75
1553	14634	44920.814683717246	0.875
1553	15638	48120.1	0.875
1553	15642	48120.4	0.75
1553	15646	48120.603083017482	0.875
1553	15651	48120.905717891163	0.75
1553	16672	51320	1
1553	16676	51320.3	0.75
1553	16681	51320.608222310864	0.75
1553	16685	51320.80985382446	0.875
1553	17698	54520.2	0.75
1553	17701	54520.4	0.875
1553	17705	54520.604129983806	0.875
1553	17712	54520.819243425089	0.875
1553	18735	57720.1	0.875
1553	18740	57720.302296964755	0.875
1553	18745	57720.603879447915	0.75
1553	18750	57720.816655571414	0.875
1553	19802	60920.2	0.75
1553	19806	60920.5	0.75
1553	19811	60920.800914883632	0.75
1553	19815	60921.002408669434	0.875
1553	20812	64120.2	0.75
1553	20816	64120.405389872826	0.875
1553	20822	64120.620623146017	0.875
1553	20826	64120.823343310408	0.875
1553	21857	67320.2	0.75
1553	21860	67320.4	0.875
1553	21868	67320.72319433403	0.75
1553	21877	67321.046889279275	0.75
1553	22920	70520.2	0.75
1553	22925	70520.506231669359	0.75
1553	22929	70520.710603487998	0.875
1553	22933	70520.920167525234	0.875
1553	23948	73720.2	0.75
1553	23951	73720.4	0.875
1553	23955	73720.602859300288	0.875
1553	23960	73720.910378981907	0.75
1553	24967	76920.2	0.75
1553	24971	76920.5	0.75
1553	24976	76920.802008279026	0.75
1553	24980	76921.006939464385	0.875
1553	25977	80120.2	0.75
1553	25983	80120.416235341663	0.875
1553	25989	80120.631393176892	0.875
1553	25995	80120.848185410118	0.875
1553	27019	83320	1
1553	27023	83320.206291798015	0.875
1553	27028	83320.51302146928	0.75
1553	27033	83320.718531229437	0.875
1553	28056	86520.1	0.875
1553	28059	86520.3	0.875
1553	28064	86520.608371391377	0.75
1553	28071	86520.827942707272	0.875
1553	29076	89720.2	0.75
1553	29079	89720.4	0.875
1553	29085	89720.621032026632	0.875
1553	29090	89720.924278606901	0.75
1553	30086	92920.1	0.875
1553	30090	92920.302092768629	0.875
1553	30094	92920.505353763485	0.875
1553	30099	92920.815078466382	0.75
1553	31104	96120	1
1553	31107	96120.2	0.875
1553	31112	96120.502317196319	0.75
1553	31116	96120.703855147126	0.875
1553	32139	99320.1	0.875
1553	32142	99320.3	0.875
1553	32147	99320.609213010352	0.75
1553	32155	99320.845922464656	0.875
1553	33194	102520.2	0.75
1553	33199	102520.503127590762	0.75
1553	33205	102520.808499812091	0.75
1553	33212	102521.029880277558	0.875
1553	34260	105720.1	0.875
1553	34263	105720.3	0.875
1553	34271	105720.536667476725	0.875
1553	34279	105720.760681961912	0.875
1553	35274	108920.2	0.75
1553	35277	108920.4	0.875
1553	35281	108920.608969750301	0.875
1553	35285	108920.817865605739	0.875
1553	36269	112120.1	0.875
1553	36272	112120.3	0.875
1553	36278	112120.514049793636	0.875
1553	36283	112120.725269667092	0.875
1553	37292	115320.1	0.875
1553	37295	115320.3	0.875
1553	37300	115320.512573565169	0.875
1553	37306	115320.735331899093	0.875
1553	38306	118520.2	0.75
1553	38309	118520.4	0.875
1553	38315	118520.706606864467	0.75
1553	38326	118521.059291866923	0.75
1553	39361	121720.1	0.875
1553	39367	121720.4144555461	0.75
1553	39372	121720.723779524258	0.75
1553	39376	121720.933558467287	0.875
1553	40395	124920.2	0.75
1553	40400	124920.505909313086	0.75
1553	40405	124920.711125356574	0.875
1553	40412	124921.024828613803	0.75
1553	41429	128120.2	0.75
1553	41433	128120.5	0.75
1553	41438	128120.712826345701	0.875
1553	41449	128120.95201533969	0.875
1553	42468	131320.2	0.75
1553	42472	131320.5	0.75
1553	42477	131320.715097886763	0.875
1553	42482	131320.919448302212	0.875
1553	43476	134520	1
1553	43480	134520.3	0.75
1553	43486	134520.514810968701	0.875
1553	43490	134520.716109509643	0.875
1553	44507	137720.2	0.75
1553	44511	137720.5	0.75
1553	44516	137720.710557860061	0.875
1553	44520	137720.911118306202	0.875
1553	45541	140920.2	0.75
1553	45545	140920.5	0.75
1553	45555	140920.733410455025	0.875
1553	45562	140920.942329384278	0.875
1553	46580	144120.1	0.875
1553	46584	144120.4	0.75
1553	46591	144120.622147464843	0.875
1553	46606	144120.969288550586	0.75
1553	47601	147320.1	0.875
1553	47604	147320.3	0.875
1553	47608	147320.508580913008	0.875
1553	47613	147320.718074371136	0.875
1553	48661	150520.1	0.875
1553	48664	150520.3	0.875
1553	48670	150520.608221520436	0.75
1553	48689	150520.981968805592	0.75
1553	49698	153720.1	0.875
1553	49701	153720.3	0.875
1553	49706	153720.511066362391	0.875
1553	49722	153720.768200524076	0.875
1553	50779	156920.1	0.875
1553	50783	156920.302301796209	0.875
1553	50788	156920.606438305913	0.75
1553	50792	156920.809548692279	0.875
1553	51789	160120.2	0.75
1553	51792	160120.4	0.875
1553	51796	160120.602631109212	0.875
1553	51801	160120.816952049873	0.875
1553	52829	163320.2	0.75
1553	52840	163320.449274021019	0.875
1553	52845	163320.656384954717	0.875
1553	52849	163320.856733554125	0.875
1553	53867	166520.2	0.75
1553	53870	166520.4	0.875
1553	53875	166520.703671501881	0.75
1553	53881	166520.918039967332	0.875
1553	54919	169720.2	0.75
1553	54924	169720.500164603565	0.75
1553	54930	169720.71118909171	0.875
1553	54936	169720.925372797672	0.875
1553	55927	172920.1	0.875
1553	55931	172920.4	0.75
1553	55935	172920.608341313279	0.875
1553	55941	172920.92314650209	0.75
1553	56969	176120.2	0.75
1553	56974	176120.508080807663	0.75
1553	56979	176120.719268845586	0.875
1553	56986	176120.943253425282	0.875
1553	58013	179320.2	0.75
1553	58017	179320.5	0.75
1553	58022	179320.710767749552	0.875
1553	58027	179320.920924930319	0.875
1553	59107	182520.1	0.875
1553	59111	182520.4	0.75
1553	59116	182520.613881846509	0.875
1553	59124	182520.835192239298	0.875
1553	60178	185720.1	0.875
1553	60181	185720.3	0.875
1553	60185	185720.505596148148	0.875
1553	60192	185720.721563158641	0.875
1553	61247	188920.2	0.75
1553	61251	188920.405499438415	0.875
1553	61257	188920.714838685655	0.75
1553	61264	188920.936974272973	0.875
1553	62273	192120.1	0.875
1553	62278	192120.317235879024	0.875
1553	62283	192120.622197355908	0.75
1553	62289	192120.837694478681	0.875
1553	63329	195320.2	0.75
1553	63332	195320.4	0.875
1553	63336	195320.604307546112	0.875
1553	63340	195320.811253696029	0.875
1553	64364	198520	1
1553	64368	198520.3	0.75
1553	64372	198520.505721992054	0.875
1553	64376	198520.710439466095	0.875
1553	65369	201720.2	0.75
1553	65373	201720.407544830222	0.875
1553	65385	201720.7571597617	0.75
1553	65392	201720.986928592486	0.875
1554	32	120.2	0.2
1554	36	120.5	0.3
1554	41	120.715283310626	0.2
1554	47	121.032015597333	0.3
1554	1062	3320.1	0.1
1554	1067	3320.402234295704	0.3
1554	1071	3320.609982261615	0.2
1554	1077	3320.921716950287	0.3
1554	2124	6520.2	0.2
1554	2128	6520.5	0.3
1554	2132	6520.702451163467	0.2
1554	2141	6520.91818220587	0.2
1554	3168	9720.1	0.1
1554	3173	9720.407325933922	0.3
1554	3177	9720.608573391187	0.2
1554	3183	9720.825185242089	0.2
1554	4237	12920.1	0.1
1554	4241	12920.4	0.3
1554	4245	12920.603920323578	0.2
1554	4249	12920.807358431089	0.2
1554	5279	16120.1	0.1
1554	5282	16120.3	0.2
1554	5287	16120.503024091945	0.2
1554	5293	16120.708356785863	0.2
1554	6311	19320.2	0.2
1554	6315	19320.5	0.3
1554	6321	19320.814706884429	0.3
1554	6327	19321.030615163808	0.2
1554	7348	22520.2	0.2
1554	7351	22520.4	0.2
1554	7355	22520.609803015482	0.2
1554	7359	22520.818253987191	0.2
1554	8381	25720.1	0.1
1554	8384	25720.3	0.2
1554	8388	25720.500392266432	0.2
1554	8395	25720.81143289355	0.3
1554	9409	28920.2	0.2
1554	9413	28920.409248594704	0.2
1554	9418	28920.716677417661	0.3
1554	9422	28920.920075987031	0.2
1554	10422	32120.1	0.1
1554	10425	32120.3	0.2
1554	10429	32120.503046548715	0.2
1554	10435	32120.721026653603	0.2
1554	11474	35320.2	0.2
1554	11477	35320.4	0.2
1554	11481	35320.601124304691	0.2
1554	11486	35320.812988321496	0.2
1554	12521	38520.1	0.1
1554	12524	38520.3	0.2
1554	12529	38520.600369152983	0.3
1554	12533	38520.806069753612	0.2
1554	13562	41720.1	0.1
1554	13566	41720.4	0.3
1554	13570	41720.609142149796	0.2
1554	13577	41720.92824209417	0.3
1554	14620	44920.1	0.1
1554	14623	44920.3	0.2
1554	14629	44920.600184287896	0.3
1554	14634	44920.814683717246	0.2
1554	15638	48120.1	0.1
1554	15642	48120.4	0.3
1554	15646	48120.603083017482	0.2
1554	15651	48120.905717891163	0.3
1554	16672	51320	0
1554	16676	51320.3	0.3
1554	16681	51320.608222310864	0.3
1554	16685	51320.80985382446	0.2
1554	17698	54520.2	0.2
1554	17701	54520.4	0.2
1554	17705	54520.604129983806	0.2
1554	17712	54520.819243425089	0.2
1554	18735	57720.1	0.1
1554	18740	57720.302296964755	0.2
1554	18745	57720.603879447915	0.3
1554	18750	57720.816655571414	0.2
1554	19802	60920.2	0.2
1554	19806	60920.5	0.3
1554	19811	60920.800914883632	0.3
1554	19815	60921.002408669434	0.2
1554	20812	64120.2	0.2
1554	20816	64120.405389872826	0.2
1554	20822	64120.620623146017	0.2
1554	20826	64120.823343310408	0.2
1554	21857	67320.2	0.2
1554	21860	67320.4	0.2
1554	21868	67320.72319433403	0.3
1554	21877	67321.046889279275	0.3
1554	22920	70520.2	0.2
1554	22925	70520.506231669359	0.3
1554	22929	70520.710603487998	0.2
1554	22933	70520.920167525234	0.2
1554	23948	73720.2	0.2
1554	23951	73720.4	0.2
1554	23955	73720.602859300288	0.2
1554	23960	73720.910378981907	0.3
1554	24967	76920.2	0.2
1554	24971	76920.5	0.3
1554	24976	76920.802008279026	0.3
1554	24980	76921.006939464385	0.2
1554	25977	80120.2	0.2
1554	25983	80120.416235341663	0.2
1554	25989	80120.631393176892	0.2
1554	25995	80120.848185410118	0.2
1554	27019	83320	0
1554	27023	83320.206291798015	0.2
1554	27028	83320.51302146928	0.3
1554	27033	83320.718531229437	0.2
1554	28056	86520.1	0.1
1554	28059	86520.3	0.2
1554	28064	86520.608371391377	0.3
1554	28071	86520.827942707272	0.2
1554	29076	89720.2	0.2
1554	29079	89720.4	0.2
1554	29085	89720.621032026632	0.2
1554	29090	89720.924278606901	0.3
1554	30086	92920.1	0.1
1554	30090	92920.302092768629	0.2
1554	30094	92920.505353763485	0.2
1554	30099	92920.815078466382	0.3
1554	31104	96120	0
1554	31107	96120.2	0.2
1554	31112	96120.502317196319	0.3
1554	31116	96120.703855147126	0.2
1554	32139	99320.1	0.1
1554	32142	99320.3	0.2
1554	32147	99320.609213010352	0.3
1554	32155	99320.845922464656	0.2
1554	33194	102520.2	0.2
1554	33199	102520.503127590762	0.3
1554	33205	102520.808499812091	0.3
1554	33212	102521.029880277558	0.2
1554	34260	105720.1	0.1
1554	34263	105720.3	0.2
1554	34271	105720.536667476725	0.2
1554	34279	105720.760681961912	0.2
1554	35274	108920.2	0.2
1554	35277	108920.4	0.2
1554	35281	108920.608969750301	0.2
1554	35285	108920.817865605739	0.2
1554	36269	112120.1	0.1
1554	36272	112120.3	0.2
1554	36278	112120.514049793636	0.2
1554	36283	112120.725269667092	0.2
1554	37292	115320.1	0.1
1554	37295	115320.3	0.2
1554	37300	115320.512573565169	0.2
1554	37306	115320.735331899093	0.2
1554	38306	118520.2	0.2
1554	38309	118520.4	0.2
1554	38315	118520.706606864467	0.3
1554	38326	118521.059291866923	0.3
1554	39361	121720.1	0.1
1554	39367	121720.4144555461	0.3
1554	39372	121720.723779524258	0.3
1554	39376	121720.933558467287	0.2
1554	40395	124920.2	0.2
1554	40400	124920.505909313086	0.3
1554	40405	124920.711125356574	0.2
1554	40412	124921.024828613803	0.3
1554	41429	128120.2	0.2
1554	41433	128120.5	0.3
1554	41438	128120.712826345701	0.2
1554	41449	128120.95201533969	0.2
1554	42468	131320.2	0.2
1554	42472	131320.5	0.3
1554	42477	131320.715097886763	0.2
1554	42482	131320.919448302212	0.2
1554	43476	134520	0
1554	43480	134520.3	0.3
1554	43486	134520.514810968701	0.2
1554	43490	134520.716109509643	0.2
1554	44507	137720.2	0.2
1554	44511	137720.5	0.3
1554	44516	137720.710557860061	0.2
1554	44520	137720.911118306202	0.2
1554	45541	140920.2	0.2
1554	45545	140920.5	0.3
1554	45555	140920.733410455025	0.2
1554	45562	140920.942329384278	0.2
1554	46580	144120.1	0.1
1554	46584	144120.4	0.3
1554	46591	144120.622147464843	0.2
1554	46606	144120.969288550586	0.3
1554	47601	147320.1	0.1
1554	47604	147320.3	0.2
1554	47608	147320.508580913008	0.2
1554	47613	147320.718074371136	0.2
1554	48661	150520.1	0.1
1554	48664	150520.3	0.2
1554	48670	150520.608221520436	0.3
1554	48689	150520.981968805592	0.3
1554	49698	153720.1	0.1
1554	49701	153720.3	0.2
1554	49706	153720.511066362391	0.2
1554	49722	153720.768200524076	0.2
1554	50779	156920.1	0.1
1554	50783	156920.302301796209	0.2
1554	50788	156920.606438305913	0.3
1554	50792	156920.809548692279	0.2
1554	51789	160120.2	0.2
1554	51792	160120.4	0.2
1554	51796	160120.602631109212	0.2
1554	51801	160120.816952049873	0.2
1554	52829	163320.2	0.2
1554	52840	163320.449274021019	0.2
1554	52845	163320.656384954717	0.2
1554	52849	163320.856733554125	0.2
1554	53867	166520.2	0.2
1554	53870	166520.4	0.2
1554	53875	166520.703671501881	0.3
1554	53881	166520.918039967332	0.2
1554	54919	169720.2	0.2
1554	54924	169720.500164603565	0.3
1554	54930	169720.71118909171	0.2
1554	54936	169720.925372797672	0.2
1554	55927	172920.1	0.1
1554	55931	172920.4	0.3
1554	55935	172920.608341313279	0.2
1554	55941	172920.92314650209	0.3
1554	56969	176120.2	0.2
1554	56974	176120.508080807663	0.3
1554	56979	176120.719268845586	0.2
1554	56986	176120.943253425282	0.2
1554	58013	179320.2	0.2
1554	58017	179320.5	0.3
1554	58022	179320.710767749552	0.2
1554	58027	179320.920924930319	0.2
1554	59107	182520.1	0.1
1554	59111	182520.4	0.3
1554	59116	182520.613881846509	0.2
1554	59124	182520.835192239298	0.2
1554	60178	185720.1	0.1
1554	60181	185720.3	0.2
1554	60185	185720.505596148148	0.2
1554	60192	185720.721563158641	0.2
1554	61247	188920.2	0.2
1554	61251	188920.405499438415	0.2
1554	61257	188920.714838685655	0.3
1554	61264	188920.936974272973	0.2
1554	62273	192120.1	0.1
1554	62278	192120.317235879024	0.2
1554	62283	192120.622197355908	0.3
1554	62289	192120.837694478681	0.2
1554	63329	195320.2	0.2
1554	63332	195320.4	0.2
1554	63336	195320.604307546112	0.2
1554	63340	195320.811253696029	0.2
1554	64364	198520	0
1554	64368	198520.3	0.3
1554	64372	198520.505721992054	0.2
1554	64376	198520.710439466095	0.2
1554	65369	201720.2	0.2
1554	65373	201720.407544830222	0.2
1554	65385	201720.7571597617	0.3
1554	65392	201720.986928592486	0.2
1555	64	220.1	1
1555	67	220.3	1
1555	71	220.504526889193	1
1555	75	220.711124047554	1
1555	1093	3420	0
1555	1097	3420.3	2
1555	1102	3420.601293990779	2
1555	1108	3420.821130691944	1
1555	2158	6620.1	1
1555	2161	6620.3	1
1555	2167	6620.6058348302	2
1555	2176	6620.921917970762	2
1555	3200	9820.1	1
1555	3206	9820.319065677431	1
1555	3214	9820.640442328596	2
1555	3219	9820.846361897909	1
1555	4267	13020.2	2
1555	4270	13020.4	1
1555	4275	13020.705081558255	2
1555	4279	13020.908264021758	1
1555	5310	16220.1	1
1555	5313	16220.3	1
1555	5318	16220.607157463994	2
1555	5324	16220.82755628584	1
1555	6344	19420.1	1
1555	6347	19420.3	1
1555	6352	19420.60867811226	2
1555	6359	19420.827658597117	1
1555	7376	22620.1	1
1555	7379	22620.3	1
1555	7386	22620.613753551542	2
1555	7391	22620.816829855959	1
1555	8413	25820.2	2
1555	8416	25820.4	1
1555	8422	25820.612335042164	1
1555	8428	25820.818947408579	1
1555	9439	29020.1	1
1555	9443	29020.4	2
1555	9447	29020.6049104801	1
1555	9452	29020.818058361275	1
1555	10453	32220.2	2
1555	10456	32220.4	1