version 2
run Stability-60-20130528-00:54:00-21385
attr configname Stability
attr datetime 20130528-00:54:00
attr experiment Stability
attr inifile omnetpp.ini
attr iterationvars $0=1e0
attr iterationvars2 "$0=1e0, $repetition=0"
attr measurement $0=1e0
attr network Network
attr processid 21385
attr repetition 0
attr replication #0
attr resultdir results
attr runnumber 60
attr seedset 60

vector 5916  Network.churner  inGoingSizeSig:vector  ETV
vector 5835  Network.dyn_peer[5]  lookupHopsSig:vector  ETV
vector 5836  Network.dyn_peer[5]  lookupStabilitySig:vector  ETV
vector 5837  Network.dyn_peer[5]  lookupTimeSig:vector  ETV
vector 5847  Network.dyn_peer[9]  lookupHopsSig:vector  ETV
vector 5848  Network.dyn_peer[9]  lookupStabilitySig:vector  ETV
vector 5849  Network.dyn_peer[9]  lookupTimeSig:vector  ETV
vector 5820  Network.dyn_peer[0]  lookupHopsSig:vector  ETV
vector 5821  Network.dyn_peer[0]  lookupStabilitySig:vector  ETV
vector 5822  Network.dyn_peer[0]  lookupTimeSig:vector  ETV
vector 5823  Network.dyn_peer[1]  lookupHopsSig:vector  ETV
vector 5824  Network.dyn_peer[1]  lookupStabilitySig:vector  ETV
vector 5825  Network.dyn_peer[1]  lookupTimeSig:vector  ETV
vector 5832  Network.dyn_peer[4]  lookupHopsSig:vector  ETV
vector 5833  Network.dyn_peer[4]  lookupStabilitySig:vector  ETV
vector 5834  Network.dyn_peer[4]  lookupTimeSig:vector  ETV
vector 5838  Network.dyn_peer[6]  lookupHopsSig:vector  ETV
vector 5839  Network.dyn_peer[6]  lookupStabilitySig:vector  ETV
vector 5840  Network.dyn_peer[6]  lookupTimeSig:vector  ETV
vector 5841  Network.dyn_peer[7]  lookupHopsSig:vector  ETV
vector 5842  Network.dyn_peer[7]  lookupStabilitySig:vector  ETV
vector 5843  Network.dyn_peer[7]  lookupTimeSig:vector  ETV
vector 5856  Network.dyn_peer[12]  lookupHopsSig:vector  ETV
vector 5857  Network.dyn_peer[12]  lookupStabilitySig:vector  ETV
vector 5858  Network.dyn_peer[12]  lookupTimeSig:vector  ETV
vector 5874  Network.dyn_peer[18]  lookupHopsSig:vector  ETV
vector 5875  Network.dyn_peer[18]  lookupStabilitySig:vector  ETV
vector 5876  Network.dyn_peer[18]  lookupTimeSig:vector  ETV
vector 5883  Network.dyn_peer[21]  lookupHopsSig:vector  ETV
vector 5884  Network.dyn_peer[21]  lookupStabilitySig:vector  ETV
vector 5885  Network.dyn_peer[21]  lookupTimeSig:vector  ETV
vector 5889  Network.dyn_peer[23]  lookupHopsSig:vector  ETV
vector 5890  Network.dyn_peer[23]  lookupStabilitySig:vector  ETV
vector 5891  Network.dyn_peer[23]  lookupTimeSig:vector  ETV
vector 5907  Network.dyn_peer[29]  lookupHopsSig:vector  ETV
vector 5908  Network.dyn_peer[29]  lookupStabilitySig:vector  ETV
vector 5909  Network.dyn_peer[29]  lookupTimeSig:vector  ETV
vector 5826  Network.dyn_peer[2]  lookupHopsSig:vector  ETV
vector 5827  Network.dyn_peer[2]  lookupStabilitySig:vector  ETV
vector 5828  Network.dyn_peer[2]  lookupTimeSig:vector  ETV
vector 5844  Network.dyn_peer[8]  lookupHopsSig:vector  ETV
vector 5845  Network.dyn_peer[8]  lookupStabilitySig:vector  ETV
vector 5846  Network.dyn_peer[8]  lookupTimeSig:vector  ETV
vector 5850  Network.dyn_peer[10]  lookupHopsSig:vector  ETV
vector 5851  Network.dyn_peer[10]  lookupStabilitySig:vector  ETV
vector 5852  Network.dyn_peer[10]  lookupTimeSig:vector  ETV
vector 5853  Network.dyn_peer[11]  lookupHopsSig:vector  ETV
vector 5854  Network.dyn_peer[11]  lookupStabilitySig:vector  ETV
vector 5855  Network.dyn_peer[11]  lookupTimeSig:vector  ETV
vector 5859  Network.dyn_peer[13]  lookupHopsSig:vector  ETV
vector 5860  Network.dyn_peer[13]  lookupStabilitySig:vector  ETV
vector 5861  Network.dyn_peer[13]  lookupTimeSig:vector  ETV
vector 5862  Network.dyn_peer[14]  lookupHopsSig:vector  ETV
vector 5863  Network.dyn_peer[14]  lookupStabilitySig:vector  ETV
vector 5864  Network.dyn_peer[14]  lookupTimeSig:vector  ETV
vector 5868  Network.dyn_peer[16]  lookupHopsSig:vector  ETV
vector 5869  Network.dyn_peer[16]  lookupStabilitySig:vector  ETV
vector 5870  Network.dyn_peer[16]  lookupTimeSig:vector  ETV
vector 5880  Network.dyn_peer[20]  lookupHopsSig:vector  ETV
vector 5881  Network.dyn_peer[20]  lookupStabilitySig:vector  ETV
vector 5882  Network.dyn_peer[20]  lookupTimeSig:vector  ETV
vector 5886  Network.dyn_peer[22]  lookupHopsSig:vector  ETV
vector 5887  Network.dyn_peer[22]  lookupStabilitySig:vector  ETV
vector 5888  Network.dyn_peer[22]  lookupTimeSig:vector  ETV
vector 5901  Network.dyn_peer[27]  lookupHopsSig:vector  ETV
vector 5902  Network.dyn_peer[27]  lookupStabilitySig:vector  ETV
vector 5903  Network.dyn_peer[27]  lookupTimeSig:vector  ETV
vector 5904  Network.dyn_peer[28]  lookupHopsSig:vector  ETV
vector 5905  Network.dyn_peer[28]  lookupStabilitySig:vector  ETV
vector 5906  Network.dyn_peer[28]  lookupTimeSig:vector  ETV
vector 5910  Network.dyn_peer[30]  lookupHopsSig:vector  ETV
vector 5911  Network.dyn_peer[30]  lookupStabilitySig:vector  ETV
vector 5912  Network.dyn_peer[30]  lookupTimeSig:vector  ETV
vector 5829  Network.dyn_peer[3]  lookupHopsSig:vector  ETV
vector 5830  Network.dyn_peer[3]  lookupStabilitySig:vector  ETV
vector 5831  Network.dyn_peer[3]  lookupTimeSig:vector  ETV
vector 5865  Network.dyn_peer[15]  lookupHopsSig:vector  ETV
vector 5866  Network.dyn_peer[15]  lookupStabilitySig:vector  ETV
vector 5867  Network.dyn_peer[15]  lookupTimeSig:vector  ETV
vector 5892  Network.dyn_peer[24]  lookupHopsSig:vector  ETV
vector 5893  Network.dyn_peer[24]  lookupStabilitySig:vector  ETV
vector 5894  Network.dyn_peer[24]  lookupTimeSig:vector  ETV
vector 5898  Network.dyn_peer[26]  lookupHopsSig:vector  ETV
vector 5899  Network.dyn_peer[26]  lookupStabilitySig:vector  ETV
vector 5900  Network.dyn_peer[26]  lookupTimeSig:vector  ETV
vector 5871  Network.dyn_peer[17]  lookupHopsSig:vector  ETV
vector 5872  Network.dyn_peer[17]  lookupStabilitySig:vector  ETV
vector 5873  Network.dyn_peer[17]  lookupTimeSig:vector  ETV
vector 5877  Network.dyn_peer[19]  lookupHopsSig:vector  ETV
vector 5878  Network.dyn_peer[19]  lookupStabilitySig:vector  ETV
vector 5879  Network.dyn_peer[19]  lookupTimeSig:vector  ETV
vector 5895  Network.dyn_peer[25]  lookupHopsSig:vector  ETV
vector 5896  Network.dyn_peer[25]  lookupStabilitySig:vector  ETV
vector 5897  Network.dyn_peer[25]  lookupTimeSig:vector  ETV
vector 5913  Network.dyn_peer[31]  lookupHopsSig:vector  ETV
vector 5914  Network.dyn_peer[31]  lookupStabilitySig:vector  ETV
vector 5915  Network.dyn_peer[31]  lookupTimeSig:vector  ETV
5820	131	20.101	1
5820	344	20.401	2
5820	462	20.604233295099	1
5820	584	20.809761883987	1
5820	665	20.9191	1
5820	886	21.121429285916	1
5820	902	21.123577880543	1
5820	2193	22.224677880543	13
5820	2392	22.424677880543	1
5820	2663	22.631702592109	1
5820	3023	22.937211061668	2
5820	3045	22.9411077753	0
5820	4434	24.050095334461	8
5820	4909	24.555228801423	4
5820	5265	24.856328801423	3
5820	6056	25.556328801423	7
5820	6922	26.357447465123	8
5820	7233	26.663682121958	2
5820	7779	27.067100915596	3
5820	7863	27.099147784901	1
5820	8157	27.390755352453	2
5820	8202	27.404282658348	2
5820	9153	28.105382658348	10
5820	9575	28.405382658348	2
5820	9863	28.615497819496	2
5820	10984	29.415497819496	7
5820	11030	29.491373186982	3
5820	11955	30.299842551596	9
5820	12121	30.499842551596	1
5820	12641	31.00239835619	4
5820	13555	31.920733669085	4
5820	13943	32.30739888581	12
5820	13948	32.30835652526	12
5820	14252	32.530627428122	5
5820	14513	32.735073655257	2
5820	15147	33.274192109767	2
5820	16046	33.975292109767	9
5820	16244	34.175292109767	1
5820	16703	34.576245831753	3
5820	17631	35.38372586111	8
5820	18039	35.78372586111	4
5820	19201	36.793783463933	10
5820	20035	37.504061844113	3
5820	20173	37.664626659017	11
5820	20634	38.111159454464	5
5820	20684	38.165274009538	4
5820	21022	38.477364004856	2
5820	21360	38.796243911459	22
5820	21400	38.823756422484	8
5820	21523	38.949095840475	9
5820	21623	39.032828501355	2
5820	21655	39.065736664083	2
5820	21975	39.37378104758	13
5820	22597	39.876027804537	5
5820	23185	40.376027804537	4
5820	23746	40.879907733277	4
5820	23800	40.91180735177	4
5820	24307	41.320104472489	3
5820	24371	41.35134839232	3
5820	24589	41.535028139449	1
5820	24619	41.553670055076	1
5820	24769	41.739158343226	1
5820	24812	41.754662525543	1
5820	25014	41.956293498445	3
5820	25881	42.756293498445	7
5820	26288	43.165275213978	3
5820	26357	43.219559310696	3
5820	26644	43.47786789343	2
5820	27079	43.784076449809	5
5820	27729	44.384076449809	6
5820	28127	44.689773857261	2
5820	28370	44.870730698296	2
5820	28643	45.090766005309	4
5820	29010	45.401590893162	3
5820	30464	46.701590893162	12
5820	30913	47.104300512713	3
5820	31606	47.605400512713	6
5820	31876	47.805400512713	1
5820	32186	48.007568783039	1
5820	32771	48.416773266876	3
5820	33557	49.026097070721	5
5820	34358	49.685546627648	6
5820	34668	49.927922683711	8
5820	34981	50.231593743583	3
5820	35218	50.431593743583	1
5820	35550	50.736746782787	2
5820	35806	50.936748802879	1
5820	36133	51.246827175979	3
5820	36949	51.946827175979	6
5820	37175	52.15234119711	1
5820	37291	52.257425969551	1
5820	37624	52.558890748301	2
5820	37837	52.759990748301	2
5820	38433	53.259990748301	4
5820	39280	53.967739493429	6
5820	39707	54.271291500611	3
5820	40399	54.771291500611	4
5820	40843	55.097255243782	2
5820	41952	55.998355243782	9
5820	42483	56.498355243782	4
5820	43485	57.30626530008	7
5820	43838	57.60736530008	3
5820	44631	58.30736530008	6
5820	45253	58.907460939383	5
5820	45333	58.998233608508	5
5820	45599	59.217064188289	3
5820	46107	59.623730301075	3
5820	46144	59.637337742364	1
5820	46299	59.803857575973	8
5820	47567	60.905752182987	11
5820	48088	61.305752182987	3
5820	48583	61.669821310282	1
5820	48710	61.80638347343	5
5820	49765	62.624701926085	7
5820	49837	62.679249385608	10
5820	50183	62.981107052297	3
5820	50545	63.286893935507	3
5820	50765	63.486893935507	1
5820	51529	64.095998634717	5
5820	51900	64.401092276455	3
5820	52677	65.001092276455	6
5820	53800	66.003214738674	10
5820	54044	66.208450959939	1
5820	54428	66.511691948732	3
5820	54773	66.811691948732	2
5820	55311	67.220464618795	3
5820	56719	68.332332149639	1
5820	57019	68.632332149639	2
5820	57355	68.936548145954	1
5820	57669	69.137648145954	4
5820	58369	69.737648145954	6
5820	58658	69.944690792704	1
5820	58782	70.056562701462	1
5820	59215	70.448539842342	4
5820	59976	71.054404601712	7
5820	60720	71.754404601712	7
5820	61158	72.060086259263	2
5820	61722	72.464606815168	4
5820	62101	72.764606815168	2
5820	62493	73.065197436389	2
5820	63500	73.866297436389	9
5820	64313	74.466297436389	5
5820	64747	74.768837154221	3
5820	65008	74.974352053398	1
5820	65185	75.08456182325	1
5820	65472	75.28456182325	1
5820	67256	76.815795857184	14
5820	67523	77.115795857184	2
5820	67847	77.423836028675	2
5820	67868	77.429657274332	2
5820	68262	77.83124630546	3
5820	68267	77.833039217654	4
5820	68269	77.833552610693	3
5820	68278	77.834728790336	3
5820	68504	78.034215438803	1
5820	68506	78.034331447161	1
5820	69427	78.642873151798	6
5820	70262	79.342873151798	6
5820	71248	80.129191052181	5
5820	72532	81.329191052181	11
5820	73471	82.168588482551	2
5820	73557	82.229792870842	9
5820	73595	82.264945049349	9
5820	74353	82.870478984286	7
5820	74841	83.270478984286	4
5820	76272	84.377540124143	11
5820	76448	84.564454858851	2
5820	76869	84.967144650065	3
5820	76893	84.969306584754	0
5820	77102	85.169306584754	1
5820	77444	85.471704737945	2
5820	78332	86.174313487689	7
5820	79398	87.074313487689	9
5820	79638	87.277762570252	1
5820	80687	88.182997595887	9
5820	80873	88.386951430952	1
5820	81101	88.561575208182	1
5820	81973	89.265687548249	6
5820	82001	89.292503553705	8
5820	82471	89.599175337332	3
5820	83472	90.399175337332	8
5820	83789	90.704558886923	2
5820	84081	91.005505319552	2
5820	84489	91.409989982293	3
5820	84697	91.610164603534	1
5820	86680	93.215285242262	18
5820	87448	93.815285242262	5
5820	87748	94.123519536919	2
5820	87763	94.124619536919	0
5820	88003	94.329315028886	1
5820	88313	94.571014743452	3
5820	89423	95.572811711296	10
5820	90339	96.272811711296	6
5820	91706	97.377334344524	11
5820	91841	97.489261940002	10
5820	92272	97.880385316998	4
5820	92516	98.054473086728	4
5820	92682	98.160493506139	1
5820	92863	98.294558835578	9
5820	93210	98.601206104972	3
5820	93793	99.101206104972	4
5820	94201	99.404066835546	2
5820	94446	99.605475598142	1
5820	94895	100.015485130551	4
5820	95598	100.715485130551	6
5820	96098	101.124417271521	3
5820	96101	101.128120100796	3
5820	96345	101.32840310431	1
5820	96351	101.330853778403	1
5820	96829	101.737525681288	3
5820	96832	101.737795619982	3
5820	96963	101.838895619982	1
5820	97391	102.238895619982	3
5820	97876	102.755805412685	4
5820	98226	103.056905412685	3
5820	99347	103.956905412685	10
5820	100228	104.666347536396	8
5820	101091	105.466347536396	7
5820	101326	105.667484408375	1
5820	101554	105.868023364816	1
5820	101752	105.978226769399	1
5820	101993	106.178226769399	2
5820	102402	106.486250210482	1
5820	102648	106.686250210482	1
5820	102939	106.895741970105	1
5820	103908	107.81311761809	8
5820	104252	108.076833240773	3
5820	104387	108.213754271836	4
5820	104461	108.281165010613	1
5820	105048	108.717251586165	4
5820	105536	109.083922016728	8
5820	105558	109.097317191976	2
5820	105575	109.122346053638	4
5820	106197	109.630346848896	6
5820	106674	110.030346848896	3
5820	108419	111.435383348668	14
5820	108868	111.843645815186	3
5820	109212	112.0956778385	2
5820	109271	112.133663905437	2
5820	109294	112.148928853224	2
5820	109580	112.350410706972	2
5820	110876	113.450410706972	11
5820	111450	113.953909869564	4
5820	111556	114.054030509647	4
5820	111691	114.163307602609	1
5820	112277	114.666194958939	4
5820	112815	115.075404370242	4
5820	113695	115.775404370242	6
5820	113999	116.003531961547	1
5820	114417	116.305074678238	3
5820	115164	116.905074678238	5
5820	115389	117.11028119472	1
5820	115791	117.430421088946	2
5820	117061	118.439032824972	11
5820	117565	118.839032824972	3
5820	118319	119.444626484635	6
5820	118343	119.468344124661	6
5820	118474	119.571895643074	1
5820	118856	119.871895643074	3
5820	119039	119.981296817616	2
5820	119634	120.481296817616	5
5820	120169	120.968625369969	5
5820	120530	121.270601046434	3
5820	120951	121.670601046434	3
5820	121944	122.480380123589	8
5820	122245	122.688578942032	1
5820	122541	122.896278567009	1
5820	122814	123.100516906908	2
5820	123246	123.413433259577	4
5820	123266	123.430357090668	1
5820	123927	123.935666377694	5
5820	124899	124.735666377694	7
5820	125207	125.037532413274	2
5820	125430	125.238608586646	1
5820	125700	125.4436422278	1
5820	125892	125.593107989098	1
5820	126294	125.896441003805	3
5820	126566	126.096441003805	1
5820	127492	127.003444727907	8
5820	127706	127.208643946427	1
5820	128153	127.618563512371	3
5820	128313	127.775737127374	6
5820	128514	127.921223928796	2
5820	128694	128.030400813423	1
5820	128983	128.330400813423	2
5820	129316	128.636679656885	2
5820	129862	129.13892173502	5
5820	131022	130.29090877604	7
5820	131435	130.696273768779	3
5820	131541	130.755751693512	16
5820	131930	131.056851693512	3
5820	132809	131.765358917898	7
5820	133282	132.169807335425	3
5820	133388	132.285762278219	2
5820	134225	132.978114707875	8
5820	134331	133.093926413932	9
5820	134513	133.294113384314	1
5820	135489	133.995626711521	7
5820	136014	134.395626711521	4
5821	131	20.101	0.875
5821	344	20.401	0.75
5821	462	20.604233295099	0.875
5821	584	20.809761883987	0.875
5821	665	20.9191	0.875
5821	886	21.121429285916	0.875
5821	902	21.123577880543	0.875
5821	2193	22.224677880543	-0.625
5821	2392	22.424677880543	0.875
5821	2663	22.631702592109	0.875
5821	3023	22.937211061668	0.75
5821	3045	22.9411077753	1
5821	4434	24.050095334461	0
5821	4909	24.555228801423	0.5
5821	5265	24.856328801423	0.625
5821	6056	25.556328801423	0.125
5821	6922	26.357447465123	0
5821	7233	26.663682121958	0.75
5821	7779	27.067100915596	0.625
5821	7863	27.099147784901	0.875
5821	8157	27.390755352453	0.75
5821	8202	27.404282658348	0.75
5821	9153	28.105382658348	-0.25
5821	9575	28.405382658348	0.75
5821	9863	28.615497819496	0.75
5821	10984	29.415497819496	0.125
5821	11030	29.491373186982	0.625
5821	11955	30.299842551596	-0.125
5821	12121	30.499842551596	0.875
5821	12641	31.00239835619	0.5
5821	13555	31.920733669085	0.5
5821	13943	32.30739888581	-0.5
5821	13948	32.30835652526	-0.5
5821	14252	32.530627428122	0.375
5821	14513	32.735073655257	0.75
5821	15147	33.274192109767	0.75
5821	16046	33.975292109767	-0.125
5821	16244	34.175292109767	0.875
5821	16703	34.576245831753	0.625
5821	17631	35.38372586111	0
5821	18039	35.78372586111	0.5
5821	19201	36.793783463933	-0.25
5821	20035	37.504061844113	0.625
5821	20173	37.664626659017	-0.375
5821	20634	38.111159454464	0.375
5821	20684	38.165274009538	0.5
5821	21022	38.477364004856	0.75
5821	21360	38.796243911459	-1.75
5821	21400	38.823756422484	0
5821	21523	38.949095840475	-0.125
5821	21623	39.032828501355	0.75
5821	21655	39.065736664083	0.75
5821	21975	39.37378104758	-0.625
5821	22597	39.876027804537	0.375
5821	23185	40.376027804537	0.5
5821	23746	40.879907733277	0.5
5821	23800	40.91180735177	0.5
5821	24307	41.320104472489	0.625
5821	24371	41.35134839232	0.625
5821	24589	41.535028139449	0.875
5821	24619	41.553670055076	0.875
5821	24769	41.739158343226	0.875
5821	24812	41.754662525543	0.875
5821	25014	41.956293498445	0.625
5821	25881	42.756293498445	0.125
5821	26288	43.165275213978	0.625
5821	26357	43.219559310696	0.625
5821	26644	43.47786789343	0.75
5821	27079	43.784076449809	0.375
5821	27729	44.384076449809	0.25
5821	28127	44.689773857261	0.75
5821	28370	44.870730698296	0.75
5821	28643	45.090766005309	0.5
5821	29010	45.401590893162	0.625
5821	30464	46.701590893162	-0.5
5821	30913	47.104300512713	0.625
5821	31606	47.605400512713	0.25
5821	31876	47.805400512713	0.875
5821	32186	48.007568783039	0.88888888806105
5821	32771	48.416773266876	0.625
5821	33557	49.026097070721	0.375
5821	34358	49.685546627648	0.25
5821	34668	49.927922683711	0
5821	34981	50.231593743583	0.625
5821	35218	50.431593743583	0.875
5821	35550	50.736746782787	0.75
5821	35806	50.936748802879	0.875
5821	36133	51.246827175979	0.625
5821	36949	51.946827175979	0.25
5821	37175	52.15234119711	0.875
5821	37291	52.257425969551	0.875
5821	37624	52.558890748301	0.75
5821	37837	52.759990748301	0.75
5821	38433	53.259990748301	0.5
5821	39280	53.967739493429	0.25
5821	39707	54.271291500611	0.625
5821	40399	54.771291500611	0.5
5821	40843	55.097255243782	0.75
5821	41952	55.998355243782	-0.125
5821	42483	56.498355243782	0.5
5821	43485	57.30626530008	0.125
5821	43838	57.60736530008	0.625
5821	44631	58.30736530008	0.25
5821	45253	58.907460939383	0.375
5821	45333	58.998233608508	0.375
5821	45599	59.217064188289	0.625
5821	46107	59.623730301075	0.625
5821	46144	59.637337742364	0.875
5821	46299	59.803857575973	0
5821	47567	60.905752182987	-0.375
5821	48088	61.305752182987	0.625
5821	48583	61.669821310282	0.875
5821	48710	61.80638347343	0.375
5821	49765	62.624701926085	0.125
5821	49837	62.679249385608	-0.25
5821	50183	62.981107052297	0.625
5821	50545	63.286893935507	0.625
5821	50765	63.486893935507	0.875
5821	51529	64.095998634717	0.375
5821	51900	64.401092276455	0.625
5821	52677	65.001092276455	0.25
5821	53800	66.003214738674	-0.25
5821	54044	66.208450959939	0.875
5821	54428	66.511691948732	0.625
5821	54773	66.811691948732	0.75
5821	55311	67.220464618795	0.625
5821	56719	68.332332149639	0.875
5821	57019	68.632332149639	0.75
5821	57355	68.936548145954	0.875
5821	57669	69.137648145954	0.5
5821	58369	69.737648145954	0.25
5821	58658	69.944690792704	0.875
5821	58782	70.056562701462	0.875
5821	59215	70.448539842342	0.5
5821	59976	71.054404601712	0.125
5821	60720	71.754404601712	0.125
5821	61158	72.060086259263	0.75
5821	61722	72.464606815168	0.5
5821	62101	72.764606815168	0.75
5821	62493	73.065197436389	0.75
5821	63500	73.866297436389	-0.125
5821	64313	74.466297436389	0.375
5821	64747	74.768837154221	0.625
5821	65008	74.974352053398	0.875
5821	65185	75.08456182325	0.875
5821	65472	75.28456182325	0.875
5821	67256	76.815795857184	-0.75
5821	67523	77.115795857184	0.75
5821	67847	77.423836028675	0.75
5821	67868	77.429657274332	0.75
5821	68262	77.83124630546	0.625
5821	68267	77.833039217654	0.5
5821	68269	77.833552610693	0.625
5821	68278	77.834728790336	0.625
5821	68504	78.034215438803	0.875
5821	68506	78.034331447161	0.875
5821	69427	78.642873151798	0.25
5821	70262	79.342873151798	0.25
5821	71248	80.129191052181	0.375
5821	72532	81.329191052181	-0.375
5821	73471	82.168588482551	0.75
5821	73557	82.229792870842	-0.125
5821	73595	82.264945049349	-0.125
5821	74353	82.870478984286	0.125
5821	74841	83.270478984286	0.5
5821	76272	84.377540124143	-0.375
5821	76448	84.564454858851	0.75
5821	76869	84.967144650065	0.625
5821	76893	84.969306584754	1
5821	77102	85.169306584754	0.875
5821	77444	85.471704737945	0.75
5821	78332	86.174313487689	0.125
5821	79398	87.074313487689	-0.125
5821	79638	87.277762570252	0.875
5821	80687	88.182997595887	-0.125
5821	80873	88.386951430952	0.875
5821	81101	88.561575208182	0.875
5821	81973	89.265687548249	0.25
5821	82001	89.292503553705	0
5821	82471	89.599175337332	0.625
5821	83472	90.399175337332	0
5821	83789	90.704558886923	0.75
5821	84081	91.005505319552	0.75
5821	84489	91.409989982293	0.625
5821	84697	91.610164603534	0.875
5821	86680	93.215285242262	-1.25
5821	87448	93.815285242262	0.375
5821	87748	94.123519536919	0.75
5821	87763	94.124619536919	1
5821	88003	94.329315028886	0.875
5821	88313	94.571014743452	0.625
5821	89423	95.572811711296	-0.25
5821	90339	96.272811711296	0.25
5821	91706	97.377334344524	-0.375
5821	91841	97.489261940002	-0.25
5821	92272	97.880385316998	0.5
5821	92516	98.054473086728	0.5
5821	92682	98.160493506139	0.875
5821	92863	98.294558835578	-0.125
5821	93210	98.601206104972	0.625
5821	93793	99.101206104972	0.5
5821	94201	99.404066835546	0.75
5821	94446	99.605475598142	0.875
5821	94895	100.015485130551	0.5
5821	95598	100.715485130551	0.25
5821	96098	101.124417271521	0.625
5821	96101	101.128120100796	0.625
5821	96345	101.32840310431	0.875
5821	96351	101.330853778403	0.875
5821	96829	101.737525681288	0.625
5821	96832	101.737795619982	0.625
5821	96963	101.838895619982	0.875
5821	97391	102.238895619982	0.625
5821	97876	102.755805412685	0.5
5821	98226	103.056905412685	0.625
5821	99347	103.956905412685	-0.25
5821	100228	104.666347536396	0
5821	101091	105.466347536396	0.125
5821	101326	105.667484408375	0.875
5821	101554	105.868023364816	0.875
5821	101752	105.978226769399	0.875
5821	101993	106.178226769399	0.75
5821	102402	106.486250210482	0.875
5821	102648	106.686250210482	0.875
5821	102939	106.895741970105	0.875
5821	103908	107.81311761809	0
5821	104252	108.076833240773	0.625
5821	104387	108.213754271836	0.5
5821	104461	108.281165010613	0.875
5821	105048	108.717251586165	0.5
5821	105536	109.083922016728	0
5821	105558	109.097317191976	0.75
5821	105575	109.122346053638	0.5
5821	106197	109.630346848896	0.25
5821	106674	110.030346848896	0.625
5821	108419	111.435383348668	-0.75
5821	108868	111.843645815186	0.625
5821	109212	112.0956778385	0.75
5821	109271	112.133663905437	0.75
5821	109294	112.148928853224	0.75
5821	109580	112.350410706972	0.75
5821	110876	113.450410706972	-0.375
5821	111450	113.953909869564	0.5
5821	111556	114.054030509647	0.5
5821	111691	114.163307602609	0.875
5821	112277	114.666194958939	0.5
5821	112815	115.075404370242	0.5
5821	113695	115.775404370242	0.25
5821	113999	116.003531961547	0.875
5821	114417	116.305074678238	0.625
5821	115164	116.905074678238	0.375
5821	115389	117.11028119472	0.875
5821	115791	117.430421088946	0.75
5821	117061	118.439032824972	-0.375
5821	117565	118.839032824972	0.625
5821	118319	119.444626484635	0.25
5821	118343	119.468344124661	0.25
5821	118474	119.571895643074	0.875
5821	118856	119.871895643074	0.625
5821	119039	119.981296817616	0.75
5821	119634	120.481296817616	0.375
5821	120169	120.968625369969	0.375
5821	120530	121.270601046434	0.625
5821	120951	121.670601046434	0.625
5821	121944	122.480380123589	0
5821	122245	122.688578942032	0.875
5821	122541	122.896278567009	0.875
5821	122814	123.100516906908	0.75
5821	123246	123.413433259577	0.5
5821	123266	123.430357090668	0.875
5821	123927	123.935666377694	0.375
5821	124899	124.735666377694	0.125
5821	125207	125.037532413274	0.77777777612209
5821	125430	125.238608586646	0.875
5821	125700	125.4436422278	0.875
5821	125892	125.593107989098	0.875
5821	126294	125.896441003805	0.625
5821	126566	126.096441003805	0.875
5821	127492	127.003444727907	0
5821	127706	127.208643946427	0.875
5821	128153	127.618563512371	0.625
5821	128313	127.775737127374	0.25
5821	128514	127.921223928796	0.75
5821	128694	128.030400813423	0.875
5821	128983	128.330400813423	0.75
5821	129316	128.636679656885	0.75
5821	129862	129.13892173502	0.375
5821	131022	130.29090877604	0.125
5821	131435	130.696273768779	0.625
5821	131541	130.755751693512	-1
5821	131930	131.056851693512	0.625
5821	132809	131.765358917898	0.125
5821	133282	132.169807335425	0.625
5821	133388	132.285762278219	0.75
5821	134225	132.978114707875	0
5821	134331	133.093926413932	-0.125
5821	134513	133.294113384314	0.875
5821	135489	133.995626711521	0.125
5821	136014	134.395626711521	0.5
5822	131	20.101	0.1
5822	344	20.401	0.3
5822	462	20.604233295099	0.2
5822	584	20.809761883987	0.2
5822	665	20.9191	0.2
5822	886	21.121429285916	0.2
5822	902	21.123577880543	0.2
5822	2193	22.224677880543	1.1
5822	2392	22.424677880543	0.2
5822	2663	22.631702592109	0.2
5822	3023	22.937211061668	0.3
5822	3045	22.9411077753	0
5822	4434	24.050095334461	0.8
5822	4909	24.555228801423	0.5
5822	5265	24.856328801423	0.3
5822	6056	25.556328801423	0.7
5822	6922	26.357447465123	0.8
5822	7233	26.663682121958	0.3
5822	7779	27.067100915596	0.4
5822	7863	27.099147784901	0.2
5822	8157	27.390755352453	0.3
5822	8202	27.404282658348	0.3
5822	9153	28.105382658348	0.7
5822	9575	28.405382658348	0.3
5822	9863	28.615497819496	0.2
5822	10984	29.415497819496	0.8
5822	11030	29.491373186982	0.4
5822	11955	30.299842551596	0.8
5822	12121	30.499842551596	0.2
5822	12641	31.00239835619	0.5
5822	13555	31.920733669085	0.5
5822	13943	32.30739888581	1.3
5822	13948	32.30835652526	1.3
5822	14252	32.530627428122	0.6
5822	14513	32.735073655257	0.2
5822	15147	33.274192109767	0.3
5822	16046	33.975292109767	0.7
5822	16244	34.175292109767	0.2
5822	16703	34.576245831753	0.4
5822	17631	35.38372586111	0.8
5822	18039	35.78372586111	0.4
5822	19201	36.793783463933	1
5822	20035	37.504061844113	0.4
5822	20173	37.664626659017	1.2
5822	20634	38.111159454464	0.6
5822	20684	38.165274009538	0.5
5822	21022	38.477364004856	0.3
5822	21360	38.796243911459	2
5822	21400	38.823756422484	0.7
5822	21523	38.949095840475	1
5822	21623	39.032828501355	0.2
5822	21655	39.065736664083	0.3
5822	21975	39.37378104758	1.2
5822	22597	39.876027804537	0.5
5822	23185	40.376027804537	0.5
5822	23746	40.879907733277	0.5
5822	23800	40.91180735177	0.5
5822	24307	41.320104472489	0.4
5822	24371	41.35134839232	0.4
5822	24589	41.535028139449	0.2
5822	24619	41.553670055076	0.2
5822	24769	41.739158343226	0.2
5822	24812	41.754662525543	0.2
5822	25014	41.956293498445	0.2
5822	25881	42.756293498445	0.8
5822	26288	43.165275213978	0.4
5822	26357	43.219559310696	0.4
5822	26644	43.47786789343	0.3
5822	27079	43.784076449809	0.3
5822	27729	44.384076449809	0.6
5822	28127	44.689773857261	0.3
5822	28370	44.870730698296	0.3
5822	28643	45.090766005309	0.4
5822	29010	45.401590893162	0.3
5822	30464	46.701590893162	1.3
5822	30913	47.104300512713	0.4
5822	31606	47.605400512713	0.5
5822	31876	47.805400512713	0.2
5822	32186	48.007568783039	0.2
5822	32771	48.416773266876	0.4
5822	33557	49.026097070721	0.6
5822	34358	49.685546627648	0.7
5822	34668	49.927922683711	0.9
5822	34981	50.231593743583	0.3
5822	35218	50.431593743583	0.2
5822	35550	50.736746782787	0.3
5822	35806	50.936748802879	0.2
5822	36133	51.246827175979	0.3
5822	36949	51.946827175979	0.7
5822	37175	52.15234119711	0.2
5822	37291	52.257425969551	0.1
5822	37624	52.558890748301	0.3
5822	37837	52.759990748301	0.2
5822	38433	53.259990748301	0.5
5822	39280	53.967739493429	0.7
5822	39707	54.271291500611	0.3
5822	40399	54.771291500611	0.5
5822	40843	55.097255243782	0.3
5822	41952	55.998355243782	0.9
5822	42483	56.498355243782	0.5
5822	43485	57.30626530008	0.8
5822	43838	57.60736530008	0.3
5822	44631	58.30736530008	0.7
5822	45253	58.907460939383	0.6
5822	45333	58.998233608508	0.6
5822	45599	59.217064188289	0.3
5822	46107	59.623730301075	0.4
5822	46144	59.637337742364	0.2
5822	46299	59.803857575973	0.8
5822	47567	60.905752182987	1.1
5822	48088	61.305752182987	0.4
5822	48583	61.669821310282	0.2
5822	48710	61.80638347343	0.5
5822	49765	62.624701926085	0.8
5822	49837	62.679249385608	1
5822	50183	62.981107052297	0.3
5822	50545	63.286893935507	0.3
5822	50765	63.486893935507	0.2
5822	51529	64.095998634717	0.6
5822	51900	64.401092276455	0.3
5822	52677	65.001092276455	0.6
5822	53800	66.003214738674	1
5822	54044	66.208450959939	0.2
5822	54428	66.511691948732	0.3
5822	54773	66.811691948732	0.3
5822	55311	67.220464618795	0.4
5822	56719	68.332332149639	0.1
5822	57019	68.632332149639	0.3
5822	57355	68.936548145954	0.2
5822	57669	69.137648145954	0.2
5822	58369	69.737648145954	0.6
5822	58658	69.944690792704	0.2
5822	58782	70.056562701462	0.2
5822	59215	70.448539842342	0.5
5822	59976	71.054404601712	0.6
5822	60720	71.754404601712	0.7
5822	61158	72.060086259263	0.3
5822	61722	72.464606815168	0.4
5822	62101	72.764606815168	0.3
5822	62493	73.065197436389	0.3
5822	63500	73.866297436389	0.8
5822	64313	74.466297436389	0.6
5822	64747	74.768837154221	0.3
5822	65008	74.974352053398	0.2
5822	65185	75.08456182325	0.1
5822	65472	75.28456182325	0.2
5822	67256	76.815795857184	1.2
5822	67523	77.115795857184	0.3
5822	67847	77.423836028675	0.3
5822	67868	77.429657274332	0.3
5822	68262	77.83124630546	0.4
5822	68267	77.833039217654	0.5
5822	68269	77.833552610693	0.4
5822	68278	77.834728790336	0.4
5822	68504	78.034215438803	0.2
5822	68506	78.034331447161	0.2
5822	69427	78.642873151798	0.6
5822	70262	79.342873151798	0.7
5822	71248	80.129191052181	0.4
5822	72532	81.329191052181	1.2
5822	73471	82.168588482551	0.3
5822	73557	82.229792870842	0.9
5822	73595	82.264945049349	0.9