version 2
run Stability-87-20130528-00:56:01-21385
attr configname Stability
attr datetime 20130528-00:56:01
attr experiment Stability
attr inifile omnetpp.ini
attr iterationvars $0=1e-2
attr iterationvars2 "$0=1e-2, $repetition=7"
attr measurement $0=1e-2
attr network Network
attr processid 21385
attr repetition 7
attr replication #7
attr resultdir results
attr runnumber 87
attr seedset 87

vector 8535  Network.churner  inGoingSizeSig:vector  ETV
vector 8478  Network.dyn_peer[13]  lookupHopsSig:vector  ETV
vector 8479  Network.dyn_peer[13]  lookupStabilitySig:vector  ETV
vector 8480  Network.dyn_peer[13]  lookupTimeSig:vector  ETV
vector 8493  Network.dyn_peer[18]  lookupHopsSig:vector  ETV
vector 8494  Network.dyn_peer[18]  lookupStabilitySig:vector  ETV
vector 8495  Network.dyn_peer[18]  lookupTimeSig:vector  ETV
vector 8511  Network.dyn_peer[24]  lookupHopsSig:vector  ETV
vector 8512  Network.dyn_peer[24]  lookupStabilitySig:vector  ETV
vector 8513  Network.dyn_peer[24]  lookupTimeSig:vector  ETV
vector 8529  Network.dyn_peer[30]  lookupHopsSig:vector  ETV
vector 8530  Network.dyn_peer[30]  lookupStabilitySig:vector  ETV
vector 8531  Network.dyn_peer[30]  lookupTimeSig:vector  ETV
vector 8451  Network.dyn_peer[4]  lookupHopsSig:vector  ETV
vector 8452  Network.dyn_peer[4]  lookupStabilitySig:vector  ETV
vector 8453  Network.dyn_peer[4]  lookupTimeSig:vector  ETV
vector 8454  Network.dyn_peer[5]  lookupHopsSig:vector  ETV
vector 8455  Network.dyn_peer[5]  lookupStabilitySig:vector  ETV
vector 8456  Network.dyn_peer[5]  lookupTimeSig:vector  ETV
vector 8469  Network.dyn_peer[10]  lookupHopsSig:vector  ETV
vector 8470  Network.dyn_peer[10]  lookupStabilitySig:vector  ETV
vector 8471  Network.dyn_peer[10]  lookupTimeSig:vector  ETV
vector 8472  Network.dyn_peer[11]  lookupHopsSig:vector  ETV
vector 8473  Network.dyn_peer[11]  lookupStabilitySig:vector  ETV
vector 8474  Network.dyn_peer[11]  lookupTimeSig:vector  ETV
vector 8481  Network.dyn_peer[14]  lookupHopsSig:vector  ETV
vector 8482  Network.dyn_peer[14]  lookupStabilitySig:vector  ETV
vector 8483  Network.dyn_peer[14]  lookupTimeSig:vector  ETV
vector 8487  Network.dyn_peer[16]  lookupHopsSig:vector  ETV
vector 8488  Network.dyn_peer[16]  lookupStabilitySig:vector  ETV
vector 8489  Network.dyn_peer[16]  lookupTimeSig:vector  ETV
vector 8490  Network.dyn_peer[17]  lookupHopsSig:vector  ETV
vector 8491  Network.dyn_peer[17]  lookupStabilitySig:vector  ETV
vector 8492  Network.dyn_peer[17]  lookupTimeSig:vector  ETV
vector 8439  Network.dyn_peer[0]  lookupHopsSig:vector  ETV
vector 8440  Network.dyn_peer[0]  lookupStabilitySig:vector  ETV
vector 8441  Network.dyn_peer[0]  lookupTimeSig:vector  ETV
vector 8445  Network.dyn_peer[2]  lookupHopsSig:vector  ETV
vector 8446  Network.dyn_peer[2]  lookupStabilitySig:vector  ETV
vector 8447  Network.dyn_peer[2]  lookupTimeSig:vector  ETV
vector 8448  Network.dyn_peer[3]  lookupHopsSig:vector  ETV
vector 8449  Network.dyn_peer[3]  lookupStabilitySig:vector  ETV
vector 8450  Network.dyn_peer[3]  lookupTimeSig:vector  ETV
vector 8457  Network.dyn_peer[6]  lookupHopsSig:vector  ETV
vector 8458  Network.dyn_peer[6]  lookupStabilitySig:vector  ETV
vector 8459  Network.dyn_peer[6]  lookupTimeSig:vector  ETV
vector 8463  Network.dyn_peer[8]  lookupHopsSig:vector  ETV
vector 8464  Network.dyn_peer[8]  lookupStabilitySig:vector  ETV
vector 8465  Network.dyn_peer[8]  lookupTimeSig:vector  ETV
vector 8508  Network.dyn_peer[23]  lookupHopsSig:vector  ETV
vector 8509  Network.dyn_peer[23]  lookupStabilitySig:vector  ETV
vector 8510  Network.dyn_peer[23]  lookupTimeSig:vector  ETV
vector 8514  Network.dyn_peer[25]  lookupHopsSig:vector  ETV
vector 8515  Network.dyn_peer[25]  lookupStabilitySig:vector  ETV
vector 8516  Network.dyn_peer[25]  lookupTimeSig:vector  ETV
vector 8517  Network.dyn_peer[26]  lookupHopsSig:vector  ETV
vector 8518  Network.dyn_peer[26]  lookupStabilitySig:vector  ETV
vector 8519  Network.dyn_peer[26]  lookupTimeSig:vector  ETV
vector 8532  Network.dyn_peer[31]  lookupHopsSig:vector  ETV
vector 8533  Network.dyn_peer[31]  lookupStabilitySig:vector  ETV
vector 8534  Network.dyn_peer[31]  lookupTimeSig:vector  ETV
vector 8460  Network.dyn_peer[7]  lookupHopsSig:vector  ETV
vector 8461  Network.dyn_peer[7]  lookupStabilitySig:vector  ETV
vector 8462  Network.dyn_peer[7]  lookupTimeSig:vector  ETV
vector 8466  Network.dyn_peer[9]  lookupHopsSig:vector  ETV
vector 8467  Network.dyn_peer[9]  lookupStabilitySig:vector  ETV
vector 8468  Network.dyn_peer[9]  lookupTimeSig:vector  ETV
vector 8499  Network.dyn_peer[20]  lookupHopsSig:vector  ETV
vector 8500  Network.dyn_peer[20]  lookupStabilitySig:vector  ETV
vector 8501  Network.dyn_peer[20]  lookupTimeSig:vector  ETV
vector 8505  Network.dyn_peer[22]  lookupHopsSig:vector  ETV
vector 8506  Network.dyn_peer[22]  lookupStabilitySig:vector  ETV
vector 8507  Network.dyn_peer[22]  lookupTimeSig:vector  ETV
vector 8520  Network.dyn_peer[27]  lookupHopsSig:vector  ETV
vector 8521  Network.dyn_peer[27]  lookupStabilitySig:vector  ETV
vector 8522  Network.dyn_peer[27]  lookupTimeSig:vector  ETV
vector 8523  Network.dyn_peer[28]  lookupHopsSig:vector  ETV
vector 8524  Network.dyn_peer[28]  lookupStabilitySig:vector  ETV
vector 8525  Network.dyn_peer[28]  lookupTimeSig:vector  ETV
vector 8442  Network.dyn_peer[1]  lookupHopsSig:vector  ETV
vector 8443  Network.dyn_peer[1]  lookupStabilitySig:vector  ETV
vector 8444  Network.dyn_peer[1]  lookupTimeSig:vector  ETV
vector 8475  Network.dyn_peer[12]  lookupHopsSig:vector  ETV
vector 8476  Network.dyn_peer[12]  lookupStabilitySig:vector  ETV
vector 8477  Network.dyn_peer[12]  lookupTimeSig:vector  ETV
vector 8526  Network.dyn_peer[29]  lookupHopsSig:vector  ETV
vector 8527  Network.dyn_peer[29]  lookupStabilitySig:vector  ETV
vector 8528  Network.dyn_peer[29]  lookupTimeSig:vector  ETV
vector 8484  Network.dyn_peer[15]  lookupHopsSig:vector  ETV
vector 8485  Network.dyn_peer[15]  lookupStabilitySig:vector  ETV
vector 8486  Network.dyn_peer[15]  lookupTimeSig:vector  ETV
vector 8502  Network.dyn_peer[21]  lookupHopsSig:vector  ETV
vector 8503  Network.dyn_peer[21]  lookupStabilitySig:vector  ETV
vector 8504  Network.dyn_peer[21]  lookupTimeSig:vector  ETV
vector 8496  Network.dyn_peer[19]  lookupHopsSig:vector  ETV
vector 8497  Network.dyn_peer[19]  lookupStabilitySig:vector  ETV
vector 8498  Network.dyn_peer[19]  lookupTimeSig:vector  ETV
8439	198	20.20001	2
8439	768	21.10359378425	8
8439	1124	21.411050308033	3
8439	1790	22.017899066246	1
8439	2149	22.323897824797	2
8439	3265	23.229061560815	10
8439	3644	23.529061560815	2
8439	4540	24.256087454489	3
8439	4940	24.561994062468	3
8439	5508	25.061994062468	5
8439	5887	25.368258921412	3
8439	6133	25.570854102485	1
8439	6291	25.7451021776	1
8439	7348	26.552892261411	9
8439	7708	26.852892261411	2
8439	8080	27.161239043241	2
8439	8152	27.253921911564	2
8439	8513	27.655242371248	3
8439	8540	27.665579297926	4
8439	9522	28.565903471732	9
8439	10090	29.065903471732	4
8439	10669	29.568610679743	4
8439	10710	29.575831363527	4
8439	11357	30.18511041154	5
8439	11871	30.591478316026	5
8439	12413	31.007984823066	2
8439	12467	31.04177208061	2
8439	12831	31.3169845908	2
8439	12857	31.32532067669	2
8439	13045	31.491478316026	8
8439	13085	31.526388923885	1
8439	13170	31.587776449493	1
8439	13572	31.895674844049	3
8439	13899	32.195674844049	3
8439	14188	32.405269304558	1
8439	16500	34.525118976348	18
8439	16900	34.925118976348	3
8439	17573	35.53489121676	5
8439	17853	35.757388588545	1
8439	18317	36.157661099444	4
8439	18611	36.457661099444	2
8439	18971	36.767228131892	3
8439	18974	36.769324417929	3
8439	18989	36.771165657099	0
8439	20062	37.671165657099	8
8439	20174	37.772758949526	9
8439	20518	38.073176225903	3
8439	20812	38.282648804714	2
8439	21195	38.682648804714	3
8439	21458	38.988557778771	2
8439	22352	39.778042184927	8
8439	22491	39.878152184927	1
8439	22855	40.178152184927	2
8439	23618	40.680803132514	4
8439	24329	41.186069529104	3
8439	24431	41.281174339938	6
8439	24793	41.590342362549	3
8439	25617	42.199885086208	6
8439	26399	42.799885086208	6
8439	27208	43.594305301227	4
8439	27366	43.706353932165	9
8439	27604	43.907194291078	1
8439	29412	45.316520263191	16
8439	30122	45.916520263191	5
8439	30968	46.717116460596	7
8439	31442	47.122199191724	3
8439	32011	47.629186921304	6
8439	32318	47.929186921304	3
8439	32650	48.230464199006	2
8439	33642	49.05610308897	7
8439	33709	49.078120509785	7
8439	33725	49.109454553816	7
8439	34233	49.410545487515	4
8439	35425	50.410545487515	9
8439	35763	50.71964442185	2
8439	36017	50.974224116161	2
8439	36362	51.275826382976	2
8439	36522	51.429530768777	7
8439	36659	51.591647465569	4
8439	36940	51.801583498274	2
8439	36985	51.836369317677	3
8439	37414	52.137886494405	3
8439	37647	52.337886494405	1
8439	38283	52.83865010906	4
8439	38881	53.344206583904	4
8439	39218	53.65045739001	2
8439	39359	53.75056739001	1
8439	39606	53.95056739001	1
8439	40556	54.75067739001	9
8439	40984	55.15067739001	4
8439	41227	55.36352325728	1
8439	41351	55.468832618188	1
8439	42082	56.168832618188	6
8439	42538	56.575618789201	3
8439	42789	56.781853788281	1
8439	43180	57.088751943255	6
8439	43183	57.089463170464	2
8439	44134	57.897148075825	8
8439	44741	58.397148075825	4
8439	45393	59.000741209766	5
8439	45749	59.313431340185	3
8439	45852	59.406920724351	3
8439	46000	59.515935486507	1
8439	46664	60.025681182252	5
8439	47205	60.460421843238	2
8439	47515	60.671300306527	1
8439	47654	60.820907016259	1
8439	48227	61.180723589188	4
8439	48377	61.322537051818	4
8439	48686	61.531604913271	2
8439	48819	61.625681182252	18
8439	48936	61.667917046568	1
8439	49223	61.88105105468	4
8439	49631	62.18116105468	4
8439	50399	62.78116105468	6
8439	51147	63.400213785069	5
8439	51361	63.610051113711	1
8439	51681	63.919982226469	2
8439	51743	63.991635697127	2
8439	52450	64.59802488858	5
8439	52480	64.624251518215	6
8439	53514	65.428589180741	8
8439	53868	65.728589180741	3
8439	54133	65.93040231908	1
8439	54843	66.436810909452	5
8439	55083	66.636810909452	1
8439	55720	67.139012758846	4
8439	55734	67.139122758846	0
8439	57252	68.202186376792	6
8439	57836	68.610717158591	3
8439	58471	69.117130377247	5
8439	59791	70.117130377247	9
8439	60301	70.482625087771	4
8439	60609	70.690362844157	2
8439	60947	70.990362844157	2
8439	62021	71.790472844157	8
8439	63561	73.090472844157	12
8439	63992	73.396779485184	2
8439	64257	73.618445623395	1
8439	65351	74.569575901707	12
8439	65441	74.65144708692	10
8439	65520	74.723408055553	11
8439	65524	74.724809678658	7
8439	66097	75.224919678658	5
8439	66440	75.524919678658	2
8439	67471	76.326592440363	7
8439	68079	76.801595326446	6
8439	68570	77.232763283303	9
8439	68831	77.461634506655	5
8439	68888	77.535744255964	2
8439	69005	77.633565649878	4
8439	69728	78.437600537326	9
8439	70039	78.737600537326	3
8439	70534	79.239582658234	5
8439	70788	79.445989642479	1
8439	71082	79.751553904586	2
8439	71568	80.157683539141	4
8439	71841	80.357683539141	1
8439	73394	81.565116653694	10
8439	73694	81.865116653694	3
8439	73835	81.975190557894	2
8439	75011	82.975190557894	10
8439	76672	84.275988875971	13
8439	77349	84.775988875971	4
8439	77877	85.182046777935	3
8439	78224	85.448789922079	2
8439	78677	85.888753596072	7
8439	78785	86.016954262851	7
8439	78838	86.051487017561	5
8439	78895	86.091482808946	1
8439	79044	86.208079706395	4
8439	79276	86.416141579087	1
8439	79491	86.617139070286	7
8439	79503	86.621484975431	1
8439	80376	87.322380286111	7
8439	81134	87.92871882796	6
8439	81664	88.334343622543	3
8439	82017	88.64054531769	2
8439	82138	88.728879268934	9
8439	83453	89.933852072599	12
8439	83771	90.233852072599	2
8439	84590	90.898780397765	5
8439	84845	91.10566096387	1
8439	84895	91.142040403339	10
8439	85268	91.455365724512	2
8439	85270	91.45579758992	2
8439	85549	91.75819325539	2
8439	85551	91.75974907395	2
8439	85725	91.85985907395	1
8439	86260	92.35985907395	4
8439	86696	92.765467639638	3
8439	86994	92.975620135734	2
8439	87509	93.488917137086	4
8439	87671	93.589027137086	1
8439	88362	94.189027137086	5
8439	88533	94.357288034575	6
8439	89079	94.759787333077	4
8439	89763	95.259787333077	6
8439	90049	95.468547211552	1
8439	90257	95.691188509532	1
8439	90907	96.39302391822	7
8439	91455	96.89302391822	4
8439	91655	97.094070972642	1
8439	92785	97.995065282078	9
8439	93411	98.495065282078	5
8439	94888	99.700216521767	12
8439	95617	100.234602227075	1
8439	95702	100.319721287451	1
8439	95930	100.501220319859	9
8439	96075	100.60646263146	1
8439	96625	101.00646263146	4
8439	96936	101.312495043486	2
8439	97131	101.517032536823	1
8439	97365	101.7222377329	1
8439	98815	102.827635330237	11
8439	99455	103.327635330237	4
8439	99946	103.734530630625	5
8439	100590	104.334530630625	5
8439	101127	104.737919586672	3
8439	101663	105.199100219069	3
8439	101686	105.244077331801	5
8439	102286	105.749856222162	5
8439	103783	106.815985983427	17
8439	103887	106.951320471243	11
8439	104270	107.257798909541	2
8439	104533	107.462703073135	2
8439	105073	107.962703073135	4
8439	105668	108.469530333481	4
8439	105991	108.702346802603	2
8439	106146	108.80935602053	2
8439	106580	109.17620730136	8
8439	106661	109.212640948052	3
8439	106780	109.302446802603	3
8439	106805	109.308306790639	5
8439	107068	109.518090900652	1
8439	107287	109.625671341749	1
8439	107955	110.125671341749	5
8439	108265	110.331338374551	1
8439	108488	110.508940083549	4
8439	108770	110.711739311257	2
8439	109660	111.49415205216	5
8439	109677	111.511739311257	7
8439	110279	112.011893013443	5
8439	110936	112.611893013443	6
8439	111595	113.220171188607	6
8439	111869	113.522564875913	3
8439	112010	113.727571372379	1
8439	112401	114.130855810358	2
8439	112648	114.331711064934	6
8439	113025	114.769445189553	10
8439	113220	114.970925517023	2
8439	114970	116.670925517023	17
8439	115746	117.376919682793	6
8439	115990	117.579279800559	2
8439	116050	117.608884266916	1
8439	116752	118.179602368451	6
8439	117040	118.412063052331	7
8439	117077	118.427943537105	7
8439	117126	118.488013678684	2
8439	118096	119.098108919374	6
8439	118586	119.498108919374	3
8439	118843	119.673270685385	2
8439	119070	119.876950390579	1
8439	119172	119.989311594714	1
8439	119317	120.092154151001	1
8439	119652	120.392154151001	2
8439	120488	121.002047376097	5
8439	121109	121.409290028572	3
8439	121645	121.809904268131	3
8439	121904	122.022720538255	1
8439	122045	122.122858568822	1
8439	122600	122.622858568822	4
8439	123270	123.340027536584	6
8439	124686	124.446506192129	11
8439	125232	124.949459925465	5
8439	125237	124.949955122704	4
8439	125517	125.258024900974	14
8439	125735	125.455685580669	4
8439	125737	125.456177759371	4
8439	125978	125.657874036339	2
8439	127364	126.754141472323	9
8439	128086	127.354141472323	5
8439	128627	127.857728979612	4
8439	128637	127.862884589302	4
8439	129188	128.265084697861	3
8439	129190	128.265759281705	3
8439	129733	128.673446737339	4
8439	129735	128.673953829238	4
8439	130026	128.874063829238	3
8439	130497	129.274063829238	3
8439	131097	129.877280475439	5
8439	131719	130.38437880564	4
8439	133392	131.68448880564	14
8439	134274	132.48448880564	7
8439	134520	132.696098997483	1
8439	134729	132.905515581261	1
8439	134886	133.01052286941	1
8439	136360	134.21052286941	13
8439	136948	134.711237376976	4
8439	137447	135.118900613844	3
8440	198	20.20001	0.75
8440	768	21.10359378425	0
8440	1124	21.411050308033	0.625
8440	1790	22.017899066246	0.875
8440	2149	22.323897824797	0.75
8440	3265	23.229061560815	-0.25
8440	3644	23.529061560815	0.75
8440	4540	24.256087454489	0.625
8440	4940	24.561994062468	0.625
8440	5508	25.061994062468	0.375
8440	5887	25.368258921412	0.625
8440	6133	25.570854102485	0.875
8440	6291	25.7451021776	0.875
8440	7348	26.552892261411	-0.125
8440	7708	26.852892261411	0.75
8440	8080	27.161239043241	0.75
8440	8152	27.253921911564	0.75
8440	8513	27.655242371248	0.625
8440	8540	27.665579297926	0.5
8440	9522	28.565903471732	-0.125
8440	10090	29.065903471732	0.5
8440	10669	29.568610679743	0.5
8440	10710	29.575831363527	0.5
8440	11357	30.18511041154	0.375
8440	11871	30.591478316026	0.375
8440	12413	31.007984823066	0.75
8440	12467	31.04177208061	0.75
8440	12831	31.3169845908	0.75
8440	12857	31.32532067669	0.75
8440	13045	31.491478316026	0
8440	13085	31.526388923885	0.875
8440	13170	31.587776449493	0.875
8440	13572	31.895674844049	0.625
8440	13899	32.195674844049	0.625
8440	14188	32.405269304558	0.875
8440	16500	34.525118976348	-1.25
8440	16900	34.925118976348	0.625
8440	17573	35.53489121676	0.375
8440	17853	35.757388588545	0.875
8440	18317	36.157661099444	0.5
8440	18611	36.457661099444	0.75
8440	18971	36.767228131892	0.625
8440	18974	36.769324417929	0.625
8440	18989	36.771165657099	1
8440	20062	37.671165657099	0
8440	20174	37.772758949526	-0.125
8440	20518	38.073176225903	0.625
8440	20812	38.282648804714	0.75
8440	21195	38.682648804714	0.625
8440	21458	38.988557778771	0.75
8440	22352	39.778042184927	0
8440	22491	39.878152184927	0.875
8440	22855	40.178152184927	0.75
8440	23618	40.680803132514	0.5
8440	24329	41.186069529104	0.625
8440	24431	41.281174339938	0.25
8440	24793	41.590342362549	0.625
8440	25617	42.199885086208	0.25
8440	26399	42.799885086208	0.25
8440	27208	43.594305301227	0.5
8440	27366	43.706353932165	-0.125
8440	27604	43.907194291078	0.875
8440	29412	45.316520263191	-1
8440	30122	45.916520263191	0.375
8440	30968	46.717116460596	0.125
8440	31442	47.122199191724	0.625
8440	32011	47.629186921304	0.25
8440	32318	47.929186921304	0.625
8440	32650	48.230464199006	0.75
8440	33642	49.05610308897	0.125
8440	33709	49.078120509785	0.125
8440	33725	49.109454553816	0.125
8440	34233	49.410545487515	0.5
8440	35425	50.410545487515	-0.125
8440	35763	50.71964442185	0.75
8440	36017	50.974224116161	0.75
8440	36362	51.275826382976	0.75
8440	36522	51.429530768777	0.125
8440	36659	51.591647465569	0.5
8440	36940	51.801583498274	0.77777777612209
8440	36985	51.836369317677	0.625
8440	37414	52.137886494405	0.625
8440	37647	52.337886494405	0.875
8440	38283	52.83865010906	0.5
8440	38881	53.344206583904	0.5
8440	39218	53.65045739001	0.75
8440	39359	53.75056739001	0.875
8440	39606	53.95056739001	0.875
8440	40556	54.75067739001	-0.125
8440	40984	55.15067739001	0.5
8440	41227	55.36352325728	0.875
8440	41351	55.468832618188	0.875
8440	42082	56.168832618188	0.25
8440	42538	56.575618789201	0.625
8440	42789	56.781853788281	0.875
8440	43180	57.088751943255	0.25
8440	43183	57.089463170464	0.75
8440	44134	57.897148075825	0
8440	44741	58.397148075825	0.5
8440	45393	59.000741209766	0.375
8440	45749	59.313431340185	0.625
8440	45852	59.406920724351	0.625
8440	46000	59.515935486507	0.875
8440	46664	60.025681182252	0.375
8440	47205	60.460421843238	0.75
8440	47515	60.671300306527	0.875
8440	47654	60.820907016259	0.875
8440	48227	61.180723589188	0.5
8440	48377	61.322537051818	0.5
8440	48686	61.531604913271	0.75
8440	48819	61.625681182252	-1.25
8440	48936	61.667917046568	0.875
8440	49223	61.88105105468	0.5
8440	49631	62.18116105468	0.5
8440	50399	62.78116105468	0.25
8440	51147	63.400213785069	0.375
8440	51361	63.610051113711	0.875
8440	51681	63.919982226469	0.75
8440	51743	63.991635697127	0.75
8440	52450	64.59802488858	0.375
8440	52480	64.624251518215	0.25
8440	53514	65.428589180741	0
8440	53868	65.728589180741	0.625
8440	54133	65.93040231908	0.875
8440	54843	66.436810909452	0.375
8440	55083	66.636810909452	0.875
8440	55720	67.139012758846	0.5
8440	55734	67.139122758846	1
8440	57252	68.202186376792	0.25
8440	57836	68.610717158591	0.625
8440	58471	69.117130377247	0.375
8440	59791	70.117130377247	-0.125
8440	60301	70.482625087771	0.5
8440	60609	70.690362844157	0.75
8440	60947	70.990362844157	0.75
8440	62021	71.790472844157	0
8440	63561	73.090472844157	-0.5
8440	63992	73.396779485184	0.75
8440	64257	73.618445623395	0.875
8440	65351	74.569575901707	-0.5
8440	65441	74.65144708692	-0.25
8440	65520	74.723408055553	-0.375
8440	65524	74.724809678658	0.125
8440	66097	75.224919678658	0.375
8440	66440	75.524919678658	0.75
8440	67471	76.326592440363	0.125
8440	68079	76.801595326446	0.25
8440	68570	77.232763283303	-0.125
8440	68831	77.461634506655	0.375
8440	68888	77.535744255964	0.75
8440	69005	77.633565649878	0.5
8440	69728	78.437600537326	-0.125
8440	70039	78.737600537326	0.625
8440	70534	79.239582658234	0.375
8440	70788	79.445989642479	0.875
8440	71082	79.751553904586	0.75
8440	71568	80.157683539141	0.5
8440	71841	80.357683539141	0.875
8440	73394	81.565116653694	-0.25
8440	73694	81.865116653694	0.625
8440	73835	81.975190557894	0.75
8440	75011	82.975190557894	-0.25
8440	76672	84.275988875971	-0.625
8440	77349	84.775988875971	0.5
8440	77877	85.182046777935	0.625
8440	78224	85.448789922079	0.75
8440	78677	85.888753596072	0.125
8440	78785	86.016954262851	0.125
8440	78838	86.051487017561	0.375
8440	78895	86.091482808946	0.875
8440	79044	86.208079706395	0.5
8440	79276	86.416141579087	0.875
8440	79491	86.617139070286	0.125
8440	79503	86.621484975431	0.88888888806105
8440	80376	87.322380286111	0.125
8440	81134	87.92871882796	0.25
8440	81664	88.334343622543	0.625
8440	82017	88.64054531769	0.75
8440	82138	88.728879268934	-0.125
8440	83453	89.933852072599	-0.5
8440	83771	90.233852072599	0.75
8440	84590	90.898780397765	0.375
8440	84845	91.10566096387	0.875
8440	84895	91.142040403339	-0.25
8440	85268	91.455365724512	0.75
8440	85270	91.45579758992	0.75
8440	85549	91.75819325539	0.75
8440	85551	91.75974907395	0.75
8440	85725	91.85985907395	0.875
8440	86260	92.35985907395	0.5
8440	86696	92.765467639638	0.625
8440	86994	92.975620135734	0.75
8440	87509	93.488917137086	0.5
8440	87671	93.589027137086	0.875
8440	88362	94.189027137086	0.375
8440	88533	94.357288034575	0.25
8440	89079	94.759787333077	0.5
8440	89763	95.259787333077	0.25
8440	90049	95.468547211552	0.875
8440	90257	95.691188509532	0.875
8440	90907	96.39302391822	0.125
8440	91455	96.89302391822	0.5
8440	91655	97.094070972642	0.875
8440	92785	97.995065282078	-0.125
8440	93411	98.495065282078	0.375
8440	94888	99.700216521767	-0.5
8440	95617	100.234602227075	0.875
8440	95702	100.319721287451	0.875
8440	95930	100.501220319859	-0.125
8440	96075	100.60646263146	0.875
8440	96625	101.00646263146	0.5
8440	96936	101.312495043486	0.75
8440	97131	101.517032536823	0.875
8440	97365	101.7222377329	0.875
8440	98815	102.827635330237	-0.375
8440	99455	103.327635330237	0.5
8440	99946	103.734530630625	0.375
8440	100590	104.334530630625	0.375
8440	101127	104.737919586672	0.625
8440	101663	105.199100219069	0.625
8440	101686	105.244077331801	0.375
8440	102286	105.749856222162	0.375
8440	103783	106.815985983427	-1.125
8440	103887	106.951320471243	-0.375
8440	104270	107.257798909541	0.75
8440	104533	107.462703073135	0.75
8440	105073	107.962703073135	0.5
8440	105668	108.469530333481	0.5
8440	105991	108.702346802603	0.75
8440	106146	108.80935602053	0.75
8440	106580	109.17620730136	0
8440	106661	109.212640948052	0.625
8440	106780	109.302446802603	0.625
8440	106805	109.308306790639	0.375
8440	107068	109.518090900652	0.875
8440	107287	109.625671341749	0.875
8440	107955	110.125671341749	0.375
8440	108265	110.331338374551	0.875
8440	108488	110.508940083549	0.5
8440	108770	110.711739311257	0.75
8440	109660	111.49415205216	0.375
8440	109677	111.511739311257	0.125
8440	110279	112.011893013443	0.375
8440	110936	112.611893013443	0.25
8440	111595	113.220171188607	0.25
8440	111869	113.522564875913	0.625
8440	112010	113.727571372379	0.875
8440	112401	114.130855810358	0.75
8440	112648	114.331711064934	0.25
8440	113025	114.769445189553	-0.25
8440	113220	114.970925517023	0.75
8440	114970	116.670925517023	-1.125
8440	115746	117.376919682793	0.25
8440	115990	117.579279800559	0.75
8440	116050	117.608884266916	0.875
8440	116752	118.179602368451	0.25
8440	117040	118.412063052331	0.125
8440	117077	118.427943537105	0.125
8440	117126	118.488013678684	0.75
8440	118096	119.098108919374	0.25
8440	118586	119.498108919374	0.625
8440	118843	119.673270685385	0.75
8440	119070	119.876950390579	0.875
8440	119172	119.989311594714	0.875
8440	119317	120.092154151001	0.875
8440	119652	120.392154151001	0.77777777612209
8440	120488	121.002047376097	0.375
8440	121109	121.409290028572	0.625
8440	121645	121.809904268131	0.625
8440	121904	122.022720538255	0.875
8440	122045	122.122858568822	0.875
8440	122600	122.622858568822	0.5
8440	123270	123.340027536584	0.25
8440	124686	124.446506192129	-0.375
8440	125232	124.949459925465	0.375
8440	125237	124.949955122704	0.5
8440	125517	125.258024900974	-0.75
8440	125735	125.455685580669	0.5
8440	125737	125.456177759371	0.5
8440	125978	125.657874036339	0.75
8440	127364	126.754141472323	-0.125
8440	128086	127.354141472323	0.375
8440	128627	127.857728979612	0.5
8440	128637	127.862884589302	0.5
8440	129188	128.265084697861	0.625
8440	129190	128.265759281705	0.625
8440	129733	128.673446737339	0.5
8440	129735	128.673953829238	0.5
8440	130026	128.874063829238	0.625
8440	130497	129.274063829238	0.625
8440	131097	129.877280475439	0.375
8440	131719	130.38437880564	0.5
8440	133392	131.68448880564	-0.75
8440	134274	132.48448880564	0.125
8440	134520	132.696098997483	0.875
8440	134729	132.905515581261	0.875
8440	134886	133.01052286941	0.875
8440	136360	134.21052286941	-0.625
8440	136948	134.711237376976	0.5
8440	137447	135.118900613844	0.625
8441	198	20.20001	0.2
8441	768	21.10359378425	0.9
8441	1124	21.411050308033	0.3
8441	1790	22.017899066246	0.1
8441	2149	22.323897824797	0.3
8441	3265	23.229061560815	0.9
8441	3644	23.529061560815	0.3
8441	4540	24.256087454489	0.4
8441	4940	24.561994062468	0.3
8441	5508	25.061994062468	0.5
8441	5887	25.368258921412	0.3
8441	6133	25.570854102485	0.2
8441	6291	25.7451021776	0.2
8441	7348	26.552892261411	0.8
8441	7708	26.852892261411	0.3
8441	8080	27.161239043241	0.3
8441	8152	27.253921911564	0.3
8441	8513	27.655242371248	0.4
8441	8540	27.665579297926	0.5
8441	9522	28.565903471732	0.9
8441	10090	29.065903471732	0.5
8441	10669	29.568610679743	0.5
8441	10710	29.575831363527	0.5
8441	11357	30.18511041154	0.6
8441	11871	30.591478316026	0.4
8441	12413	31.007984823066	0.3
8441	12467	31.04177208061	0.3
8441	12831	31.3169845908	0.3
8441	12857	31.32532067669	0.3
8441	13045	31.491478316026	0.9
8441	13085	31.526388923885	0.2
8441	13170	31.587776449493	0.2
8441	13572	31.895674844049	0.3
8441	13899	32.195674844049	0.3
8441	14188	32.405269304558	0.2
8441	16500	34.525118976348	1.7
8441	16900	34.925118976348	0.4
8441	17573	35.53489121676	0.6
8441	17853	35.757388588545	0.2
8441	18317	36.157661099444	0.4
8441	18611	36.457661099444	0.3
8441	18971	36.767228131892	0.4
8441	18974	36.769324417929	0.3
8441	18989	36.771165657099	0
8441	20062	37.671165657099	0.9
8441	20174	37.772758949526	1
8441	20518	38.073176225903	0.4
8441	20812	38.282648804714	0.2
8441	21195	38.682648804714	0.4
8441	21458	38.988557778771	0.3
8441	22352	39.778042184927	0.9
8441	22491	39.878152184927	0.1
8441	22855	40.178152184927	0.3
8441	23618	40.680803132514	0.5
8441	24329	41.186069529104	0.4
8441	24431	41.281174339938	0.6
8441	24793	41.590342362549	0.4
8441	25617	42.199885086208	0.6
8441	26399	42.799885086208	0.6
8441	27208	43.594305301227	0.5
8441	27366	43.706353932165	0.9
8441	27604	43.907194291078	0.2
8441	29412	45.316520263191	1.4
8441	30122	45.916520263191	0.6
8441	30968	46.717116460596	0.8
8441	31442	47.122199191724	0.4
8441	32011	47.629186921304	0.5
8441	32318	47.929186921304	0.3
8441	32650	48.230464199006	0.3
8441	33642	49.05610308897	0.8
8441	33709	49.078120509785	0.8
8441	33725	49.109454553816	0.8
8441	34233	49.410545487515	0.3
8441	35425	50.410545487515	1
8441	35763	50.71964442185	0.3
8441	36017	50.974224116161	0.3
8441	36362	51.275826382976	0.3
8441	36522	51.429530768777	0.7
8441	36659	51.591647465569	0.5
8441	36940	51.801583498274	0.2
8441	36985	51.836369317677	0.4
8441	37414	52.137886494405	0.3
8441	37647	52.337886494405	0.2
8441	38283	52.83865010906	0.5
8441	38881	53.344206583904	0.5
8441	39218	53.65045739001	0.3
8441	39359	53.75056739001	0.1
8441	39606	53.95056739001	0.2
8441	40556	54.75067739001	0.8
8441	40984	55.15067739001	0.4
8441	41227	55.36352325728	0.2
8441	41351	55.468832618188	0.1
8441	42082	56.168832618188	0.7
8441	42538	56.575618789201	0.4
8441	42789	56.781853788281	0.2
8441	43180	57.088751943255	0.7
8441	43183	57.089463170464	0.3
8441	44134	57.897148075825	0.8
8441	44741	58.397148075825	0.5
8441	45393	59.000741209766	0.6
8441	45749	59.313431340185	0.4
8441	45852	59.406920724351	0.4
8441	46000	59.515935486507	0.2
8441	46664	60.025681182252	0.5
8441	47205	60.460421843238	0.3
8441	47515	60.671300306527	0.2
8441	47654	60.820907016259	0.2
8441	48227	61.180723589188	0.5
8441	48377	61.322537051818	0.5
8441	48686	61.531604913271	0.2
8441	48819	61.625681182252	1.6
8441	48936	61.667917046568	0.1
8441	49223	61.88105105468	0.5
8441	49631	62.18116105468	0.3
8441	50399	62.78116105468	0.6
8441	51147	63.400213785069	0.6
8441	51361	63.610051113711	0.2
8441	51681	63.919982226469	0.3
8441	51743	63.991635697127	0.3
8441	52450	64.59802488858	0.6
8441	52480	64.624251518215	0.7
8441	53514	65.428589180741	0.8
8441	53868	65.728589180741	0.3
8441	54133	65.93040231908	0.2
8441	54843	66.436810909452	0.5
8441	55083	66.636810909452	0.2
8441	55720	67.139012758846	0.5
8441	55734	67.139122758846	0
8441	57252	68.202186376792	0.6
8441	57836	68.610717158591	0.4
8441	58471	69.117130377247	0.5
8441	59791	70.117130377247	1
8441	60301	70.482625087771	0.5
8441	60609	70.690362844157	0.2
8441	60947	70.990362844157	0.3
8441	62021	71.790472844157	0.8
8441	63561	73.090472844157	1.3
8441	63992	73.396779485184	0.3
8441	64257	73.618445623395	0.2
8441	65351	74.569575901707	1.2
8441	65441	74.65144708692	1
8441	65520	74.723408055553	1.1
8441	65524	74.724809678658	0.7
8441	66097	75.224919678658	0.5
8441	66440	75.524919678658	0.3
8441	67471	76.326592440363	0.8
8441	68079	76.801595326446	0.7
8441	68570	77.232763283303	0.9
8441	68831	77.461634506655	0.6
8441	68888	77.535744255964	0.3
8441	69005	77.633565649878	0.4
8441	69728	78.437600537326	0.8
8441	70039	78.737600537326	0.3
8441	70534	79.239582658234	0.5
8441	70788	79.445989642479	0.2
8441	71082	79.751553904586	0.3
8441	71568	80.157683539141	0.4
8441	71841	80.357683539141	0.2
8441	73394	81.565116653694	0.9