file 1057271 1369933136                                         
version 2
run Stability-148-20130528-01:00:36-21385
attr configname Stability
attr datetime 20130528-01:00:36
attr experiment Stability
attr inifile omnetpp.ini
attr iterationvars $0=1e-8
attr iterationvars2 "$0=1e-8, $repetition=8"
attr measurement $0=1e-8
attr network Network
attr processid 21385
attr repetition 8
attr replication #8
attr resultdir results
attr runnumber 148
attr seedset 148
vector 14452  Network.churner  inGoingSizeSig:vector  ETV
14452	928834 128437 22 137635 20 136.537072185728 4097 0 31 125747 3881145
vector 14362  Network.dyn_peer[2]  lookupHopsSig:vector  ETV
14362	65851 8820 35 137168 20.00000000003 134.770991082838 290 0 18 1182 7332
vector 14363  Network.dyn_peer[2]  lookupStabilitySig:vector  ETV
14363	74671 9777 35 137168 20.00000000003 134.770991082838 290 -1.25 1 142.44444441795 109.10378084065
vector 14364  Network.dyn_peer[2]  lookupTimeSig:vector  ETV
14364	84448 9357 35 137168 20.00000000003 134.770991082838 290 0 1.7 133 81.7
vector 14374  Network.dyn_peer[6]  lookupHopsSig:vector  ETV
14374	179776 9187 51 137521 20.00000000007 135.410086543953 302 0 19 1264 8496
vector 14375  Network.dyn_peer[6]  lookupStabilitySig:vector  ETV
14375	188963 10186 51 137521 20.00000000007 135.410086543953 302 -1.375 1 144.06944441795 118.80690584065
vector 14376  Network.dyn_peer[6]  lookupTimeSig:vector  ETV
14376	199149 9758 51 137521 20.00000000007 135.410086543953 302 0 1.8 141.9 92.41
vector 14395  Network.dyn_peer[13]  lookupHopsSig:vector  ETV
14395	384228 9034 76 136797 20.00000000014 134.362447230655 297 0 21 1293 8821
vector 14396  Network.dyn_peer[13]  lookupStabilitySig:vector  ETV
14396	393262 10029 76 136797 20.00000000014 134.362447230655 297 -1.625 1 135.375 111.578125
vector 14397  Network.dyn_peer[13]  lookupTimeSig:vector  ETV
14397	403291 9591 76 136797 20.00000000014 134.362447230655 297 0 1.9 143.1 94.27
vector 14416  Network.dyn_peer[20]  lookupHopsSig:vector  ETV
14416	587375 8965 101 137027 20.00000000021 134.641553051065 295 0 20 1279 8525
vector 14417  Network.dyn_peer[20]  lookupStabilitySig:vector  ETV
14417	596340 9919 101 137027 20.00000000021 134.641553051065 295 -1.5 1 135.13888888806 108.47762345532
vector 14418  Network.dyn_peer[20]  lookupTimeSig:vector  ETV
14418	606259 9513 101 137027 20.00000000021 134.641553051065 295 0 1.9 143.4 94.78
vector 14365  Network.dyn_peer[3]  lookupHopsSig:vector  ETV
14365	93805 8694 143 137304 20.10000000004 134.987947985085 285 0 21 1272 9138
vector 14366  Network.dyn_peer[3]  lookupStabilitySig:vector  ETV
14366	102499 9653 143 137304 20.10000000004 134.987947985085 285 -1.625 1 126.15277775377 109.89332559668
vector 14367  Network.dyn_peer[3]  lookupTimeSig:vector  ETV
14367	112152 9220 143 137304 20.10000000004 134.987947985085 285 0.1 1.9 140.5 97.39
vector 14371  Network.dyn_peer[5]  lookupHopsSig:vector  ETV
14371	151254 8985 149 137427 20.10000000006 135.23112467357 295 0 19 1237 7697
vector 14372  Network.dyn_peer[5]  lookupStabilitySig:vector  ETV
14372	160239 9993 149 137427 20.10000000006 135.23112467357 295 -1.375 1 140.51388887316 106.11631943451
vector 14373  Network.dyn_peer[5]  lookupTimeSig:vector  ETV
14373	170232 9544 149 137427 20.10000000006 135.23112467357 295 0 1.9 139.8 87.62
vector 14380  Network.dyn_peer[8]  lookupHopsSig:vector  ETV
14380	235937 9366 155 137079 20.10000000009 134.674802910239 307 0 30 1264 8960
vector 14381  Network.dyn_peer[8]  lookupStabilitySig:vector  ETV
14381	245303 10404 155 137079 20.10000000009 134.674802910239 307 -2.75 1 149.13888886571 131.08757714136
vector 14382  Network.dyn_peer[8]  lookupTimeSig:vector  ETV
14382	255707 9934 155 137079 20.10000000009 134.674802910239 307 0 2.6 140.7 93.69
vector 14401  Network.dyn_peer[15]  lookupHopsSig:vector  ETV
14401	440807 9484 166 137489 20.10000000016 135.354450102316 311 0 24 1273 8503
vector 14402  Network.dyn_peer[15]  lookupStabilitySig:vector  ETV
14402	450291 10529 166 137489 20.10000000016 135.354450102316 311 -2 1 151.98611110449 125.62172067754
vector 14403  Network.dyn_peer[15]  lookupTimeSig:vector  ETV
14403	460820 10071 166 137489 20.10000000016 135.354450102316 311 0 2.2 141.3 89.41
vector 14404  Network.dyn_peer[16]  lookupHopsSig:vector  ETV
14404	470891 9522 171 137633 20.10000000017 136.529200987808 313 0 28 1292 8884
vector 14405  Network.dyn_peer[16]  lookupStabilitySig:vector  ETV
14405	480413 10574 171 137633 20.10000000017 136.529200987808 313 -2.5 1 151.66666665673 128.88348764917
vector 14406  Network.dyn_peer[16]  lookupTimeSig:vector  ETV
14406	490987 10113 171 137633 20.10000000017 136.529200987808 313 0 2.4 145.2 96.14
vector 14407  Network.dyn_peer[17]  lookupHopsSig:vector  ETV
14407	501100 9314 176 136631 20.10000000018 134.155366766125 306 0 23 1301 8589
vector 14408  Network.dyn_peer[17]  lookupStabilitySig:vector  ETV
14408	510414 10338 176 136631 20.10000000018 134.155366766125 306 -1.875 1 143.58333326876 115.00578703262
vector 14409  Network.dyn_peer[17]  lookupTimeSig:vector  ETV
14409	520752 9888 176 136631 20.10000000018 134.155366766125 306 0 2.2 145 93.86
vector 14422  Network.dyn_peer[22]  lookupHopsSig:vector  ETV
14422	644963 9680 185 137503 20.10000000023 135.385910120261 318 0 22 1301 8415
vector 14423  Network.dyn_peer[22]  lookupStabilitySig:vector  ETV
14423	654643 10755 185 137503 20.10000000023 135.385910120261 318 -1.75 1 155.72222220898 124.3483796208
vector 14424  Network.dyn_peer[22]  lookupTimeSig:vector  ETV
14424	665398 10263 185 137503 20.10000000023 135.385910120261 318 0 1.8 145.9 91.41
vector 14443  Network.dyn_peer[29]  lookupHopsSig:vector  ETV
14443	844909 8304 196 136941 20.1000000003 134.519976222756 272 0 21 1200 7898
vector 14444  Network.dyn_peer[29]  lookupStabilitySig:vector  ETV
14444	853213 9191 196 136941 20.1000000003 134.519976222756 272 -1.625 1 122.18055552244 95.488618808028
vector 14445  Network.dyn_peer[29]  lookupTimeSig:vector  ETV
14445	862404 8818 196 136941 20.1000000003 134.519976222756 272 0 1.8 132.7 86.39
vector 14359  Network.dyn_peer[1]  lookupHopsSig:vector  ETV
14359	36142 9373 206 137357 20.20000000002 135.055634036432 308 0 17 1364 8970
vector 14360  Network.dyn_peer[1]  lookupStabilitySig:vector  ETV
14360	45515 10371 206 137357 20.20000000002 135.055634036432 308 -1.125 1 137.55555554479 107.23456788652
vector 14361  Network.dyn_peer[1]  lookupTimeSig:vector  ETV
14361	55886 9965 206 137357 20.20000000002 135.055634036432 308 0.1 1.6 152.5 99.71
vector 14383  Network.dyn_peer[9]  lookupHopsSig:vector  ETV
14383	265641 9379 216 136249 20.2000000001 133.733806594256 308 0 16 1269 8017
vector 14384  Network.dyn_peer[9]  lookupStabilitySig:vector  ETV
14384	275020 10377 216 136249 20.2000000001 133.733806594256 308 -1 1 149.41666666418 116.08256172435
vector 14385  Network.dyn_peer[9]  lookupTimeSig:vector  ETV
14385	285397 9961 216 136249 20.2000000001 133.733806594256 308 0 1.5 141.9 89.85
vector 14386  Network.dyn_peer[10]  lookupHopsSig:vector  ETV
14386	295358 10243 221 137574 20.20000000011 135.704125005713 336 0 17 1303 7521
vector 14387  Network.dyn_peer[10]  lookupStabilitySig:vector  ETV
14387	305601 11379 221 137574 20.20000000011 135.704125005713 336 -1.125 1 173.22222220898 127.90432096926
vector 14388  Network.dyn_peer[10]  lookupTimeSig:vector  ETV
14388	316980 10875 221 137574 20.20000000011 135.704125005713 336 0 1.5 148.1 86.79
vector 14389  Network.dyn_peer[11]  lookupHopsSig:vector  ETV
14389	327855 8912 226 137342 20.20000000012 135.049033773337 292 0 22 1265 8845
vector 14390  Network.dyn_peer[11]  lookupStabilitySig:vector  ETV
14390	336767 9907 226 137342 20.20000000012 135.049033773337 292 -1.75 1 134.04166662693 114.10937496026
vector 14391  Network.dyn_peer[11]  lookupTimeSig:vector  ETV
14391	346674 9450 226 137342 20.20000000012 135.049033773337 292 0 2.1 139.4 93.7
vector 14437  Network.dyn_peer[27]  lookupHopsSig:vector  ETV
14437	788403 9183 246 136880 20.20000000028 134.441453051065 302 0 18 1226 7624
vector 14438  Network.dyn_peer[27]  lookupStabilitySig:vector  ETV
14438	797586 10209 246 136880 20.20000000028 134.441453051065 302 -1.25 1 148.93055551499 114.8188656988
vector 14439  Network.dyn_peer[27]  lookupTimeSig:vector  ETV
14439	807795 9756 246 136880 20.20000000028 134.441453051065 302 0 1.7 138.3 86.15
vector 14440  Network.dyn_peer[28]  lookupHopsSig:vector  ETV
14440	817551 8634 251 136954 20.20000000029 134.532852298942 284 0 19 1255 8481
vector 14441  Network.dyn_peer[28]  lookupStabilitySig:vector  ETV
14441	826185 9563 251 136954 20.20000000029 134.532852298942 284 -1.375 1 127.19444441795 102.82253084065
vector 14442  Network.dyn_peer[28]  lookupTimeSig:vector  ETV
14442	835748 9161 251 136954 20.20000000029 134.532852298942 284 0 1.8 138.5 90.51
vector 14356  Network.dyn_peer[0]  lookupHopsSig:vector  ETV
14356	6538 9336 263 136909 20.30000000001 134.472673129845 308 0 17 1237 7681
vector 14357  Network.dyn_peer[0]  lookupStabilitySig:vector  ETV
14357	15874 10347 263 136909 20.30000000001 134.472673129845 308 -1.125 1 153.375 118.765625
vector 14358  Network.dyn_peer[0]  lookupTimeSig:vector  ETV
14358	26221 9921 263 136909 20.30000000001 134.472673129845 308 0 1.5 139.5 85.47
vector 14377  Network.dyn_peer[7]  lookupHopsSig:vector  ETV
14377	208907 8518 273 136609 20.30000000008 134.133806594246 280 0 21 1283 8763
vector 14378  Network.dyn_peer[7]  lookupStabilitySig:vector  ETV
14378	217425 9463 273 136609 20.30000000008 134.133806594246 280 -1.625 1 119.7499999702 96.287422812279
vector 14379  Network.dyn_peer[7]  lookupTimeSig:vector  ETV
14379	226888 9049 273 136609 20.30000000008 134.133806594246 280 0 1.8 141.6 94.22
vector 14392  Network.dyn_peer[12]  lookupHopsSig:vector  ETV
14392	356124 8868 281 136156 20.30000000013 133.669820936555 292 0 21 1245 8275
vector 14393  Network.dyn_peer[12]  lookupStabilitySig:vector  ETV
14393	364992 9818 281 136156 20.30000000013 133.669820936555 292 -1.625 1 136.48611110449 110.05922067754
vector 14394  Network.dyn_peer[12]  lookupTimeSig:vector  ETV
14394	374810 9418 281 136156 20.30000000013 133.669820936555 292 0 1.8 137 86.74
vector 14398  Network.dyn_peer[14]  lookupHopsSig:vector  ETV
14398	412882 8822 287 137466 20.30000000015 135.289825250368 290 0 17 1189 7373
vector 14399  Network.dyn_peer[14]  lookupStabilitySig:vector  ETV
14399	421704 9741 287 137466 20.30000000015 135.289825250368 290 -1.125 1 141.55555552244 108.03549380803
vector 14400  Network.dyn_peer[14]  lookupTimeSig:vector  ETV
14400	431445 9362 287 137466 20.30000000015 135.289825250368 290 0 1.7 133.5 82.13
vector 14413  Network.dyn_peer[19]  lookupHopsSig:vector  ETV
14413	558222 9199 297 136473 20.3000000002 133.969602221584 302 0 23 1236 8000
vector 14414  Network.dyn_peer[19]  lookupStabilitySig:vector  ETV
14414	567421 10190 297 136473 20.3000000002 133.969602221584 302 -1.875 1 147.69444441795 118.04128084065
vector 14415  Network.dyn_peer[19]  lookupTimeSig:vector  ETV
14415	577611 9764 297 136473 20.3000000002 133.969602221584 302 0 2 138.2 86.52
vector 14425  Network.dyn_peer[23]  lookupHopsSig:vector  ETV
14425	675661 8519 306 137590 20.30000000024 135.788459937621 280 0 18 1223 8473
vector 14426  Network.dyn_peer[23]  lookupStabilitySig:vector  ETV
14426	684180 9463 306 137590 20.30000000024 135.788459937621 280 -1.25 1 127.33333329856 106.75231478722
vector 14427  Network.dyn_peer[23]  lookupTimeSig:vector  ETV
14427	693643 9033 306 137590 20.30000000024 135.788459937621 280 0 1.9 134.7 89.65
vector 14446  Network.dyn_peer[30]  lookupHopsSig:vector  ETV
14446	871222 9359 317 137415 20.30000000031 135.217606675759 308 0 19 1269 8023
vector 14447  Network.dyn_peer[30]  lookupStabilitySig:vector  ETV
14447	880581 10396 317 137415 20.30000000031 135.217606675759 308 -1.375 1 149.47222219408 116.20871910968
vector 14448  Network.dyn_peer[30]  lookupTimeSig:vector  ETV
14448	890977 9940 317 137415 20.30000000031 135.217606675759 308 0 1.8 141.6 87.94
vector 14449  Network.dyn_peer[31]  lookupHopsSig:vector  ETV
14449	900917 8801 322 136206 20.30000000032 133.702569671892 289 0 21 1237 8313
vector 14450  Network.dyn_peer[31]  lookupStabilitySig:vector  ETV
14450	909718 9765 322 136206 20.30000000032 133.702569671892 289 -1.625 1 134.375 109.640625
vector 14451  Network.dyn_peer[31]  lookupTimeSig:vector  ETV
14451	919483 9351 322 136206 20.30000000032 133.702569671892 289 0 1.9 136.7 89.05
vector 14368  Network.dyn_peer[4]  lookupHopsSig:vector  ETV
14368	121372 9432 347 136382 20.40000000005 133.869820936565 310 0 20 1222 7368
vector 14369  Network.dyn_peer[4]  lookupStabilitySig:vector  ETV
14369	130804 10431 347 136382 20.40000000005 133.869820936565 310 -1.5 1 157.29166665673 119.6788194312
vector 14370  Network.dyn_peer[4]  lookupTimeSig:vector  ETV
14370	141235 10019 347 136382 20.40000000005 133.869820936565 310 0 2 137.8 81.52
vector 14410  Network.dyn_peer[18]  lookupHopsSig:vector  ETV
14410	530640 8701 363 136861 20.40000000019 134.432695359246 286 0 19 1258 8478
vector 14411  Network.dyn_peer[18]  lookupStabilitySig:vector  ETV
14411	539341 9654 363 136861 20.40000000019 134.432695359246 286 -1.375 1 128.8749999851 104.04494597919
vector 14412  Network.dyn_peer[18]  lookupTimeSig:vector  ETV
14412	548995 9227 363 136861 20.40000000019 134.432695359246 286 0 1.7 137.9 90.29
vector 14419  Network.dyn_peer[21]  lookupHopsSig:vector  ETV
14419	615772 9213 369 137120 20.40000000022 134.714242195955 303 0 21 1245 8273
vector 14420  Network.dyn_peer[21]  lookupStabilitySig:vector  ETV
14420	624985 10202 369 137120 20.40000000022 134.714242195955 303 -1.625 1 147.41666665673 121.0694444312
vector 14421  Network.dyn_peer[21]  lookupTimeSig:vector  ETV
14421	635187 9776 369 137120 20.40000000022 134.714242195955 303 0 1.7 137.1 87.37
vector 14428  Network.dyn_peer[24]  lookupHopsSig:vector  ETV
14428	702676 9196 376 136210 20.40000000025 133.703797101684 301 0 20 1279 8267
vector 14429  Network.dyn_peer[24]  lookupStabilitySig:vector  ETV
14429	711872 10195 376 136210 20.40000000025 133.703797101684 301 -1.5 1 141.375 110.2856866813
vector 14430  Network.dyn_peer[24]  lookupTimeSig:vector  ETV
14430	722067 9757 376 136210 20.40000000025 133.703797101684 301 0 1.8 144.2 91.56
vector 14431  Network.dyn_peer[25]  lookupHopsSig:vector  ETV
14431	731824 8713 422 135859 20.50000000026 133.419524690456 286 0 21 1194 8052
vector 14432  Network.dyn_peer[25]  lookupStabilitySig:vector  ETV
14432	740537 9620 422 135859 20.50000000026 133.419524690456 286 -1.625 1 136.75 113.3125
vector 14433  Network.dyn_peer[25]  lookupTimeSig:vector  ETV
14433	750157 9246 422 135859 20.50000000026 133.419524690456 286 0 1.7 131.9 83.61
vector 14434  Network.dyn_peer[26]  lookupHopsSig:vector  ETV
14434	759403 9153 427 137227 20.50000000027 134.853179235229 301 0 23 1320 8890
vector 14435  Network.dyn_peer[26]  lookupStabilitySig:vector  ETV
14435	768556 10147 427 137227 20.50000000027 134.853179235229 301 -1.875 1 136.11111107469 110.01697527185
vector 14436  Network.dyn_peer[26]  lookupTimeSig:vector  ETV
14436	778703 9700 427 137227 20.50000000027 134.853179235229 301 0 2.1 146.4 95.68
