version 2
run Stability-33-20130528-00:52:13-21385
attr configname Stability
attr datetime 20130528-00:52:13
attr experiment Stability
attr inifile omnetpp.ini
attr iterationvars $0=1e3
attr iterationvars2 "$0=1e3, $repetition=3"
attr measurement $0=1e3
attr network Network
attr processid 21385
attr repetition 3
attr replication #3
attr resultdir results
attr runnumber 33
attr seedset 33

vector 3297  Network.churner  inGoingSizeSig:vector  ETV
vector 3201  Network.dyn_peer[0]  lookupHopsSig:vector  ETV
vector 3202  Network.dyn_peer[0]  lookupStabilitySig:vector  ETV
vector 3203  Network.dyn_peer[0]  lookupTimeSig:vector  ETV
vector 3204  Network.dyn_peer[1]  lookupHopsSig:vector  ETV
vector 3205  Network.dyn_peer[1]  lookupStabilitySig:vector  ETV
vector 3206  Network.dyn_peer[1]  lookupTimeSig:vector  ETV
vector 3207  Network.dyn_peer[2]  lookupHopsSig:vector  ETV
vector 3208  Network.dyn_peer[2]  lookupStabilitySig:vector  ETV
vector 3209  Network.dyn_peer[2]  lookupTimeSig:vector  ETV
vector 3210  Network.dyn_peer[3]  lookupHopsSig:vector  ETV
vector 3211  Network.dyn_peer[3]  lookupStabilitySig:vector  ETV
vector 3212  Network.dyn_peer[3]  lookupTimeSig:vector  ETV
vector 3213  Network.dyn_peer[4]  lookupHopsSig:vector  ETV
vector 3214  Network.dyn_peer[4]  lookupStabilitySig:vector  ETV
vector 3215  Network.dyn_peer[4]  lookupTimeSig:vector  ETV
vector 3216  Network.dyn_peer[5]  lookupHopsSig:vector  ETV
vector 3217  Network.dyn_peer[5]  lookupStabilitySig:vector  ETV
vector 3218  Network.dyn_peer[5]  lookupTimeSig:vector  ETV
vector 3219  Network.dyn_peer[6]  lookupHopsSig:vector  ETV
vector 3220  Network.dyn_peer[6]  lookupStabilitySig:vector  ETV
vector 3221  Network.dyn_peer[6]  lookupTimeSig:vector  ETV
vector 3222  Network.dyn_peer[7]  lookupHopsSig:vector  ETV
vector 3223  Network.dyn_peer[7]  lookupStabilitySig:vector  ETV
vector 3224  Network.dyn_peer[7]  lookupTimeSig:vector  ETV
vector 3225  Network.dyn_peer[8]  lookupHopsSig:vector  ETV
vector 3226  Network.dyn_peer[8]  lookupStabilitySig:vector  ETV
vector 3227  Network.dyn_peer[8]  lookupTimeSig:vector  ETV
vector 3228  Network.dyn_peer[9]  lookupHopsSig:vector  ETV
vector 3229  Network.dyn_peer[9]  lookupStabilitySig:vector  ETV
vector 3230  Network.dyn_peer[9]  lookupTimeSig:vector  ETV
vector 3231  Network.dyn_peer[10]  lookupHopsSig:vector  ETV
vector 3232  Network.dyn_peer[10]  lookupStabilitySig:vector  ETV
vector 3233  Network.dyn_peer[10]  lookupTimeSig:vector  ETV
vector 3234  Network.dyn_peer[11]  lookupHopsSig:vector  ETV
vector 3235  Network.dyn_peer[11]  lookupStabilitySig:vector  ETV
vector 3236  Network.dyn_peer[11]  lookupTimeSig:vector  ETV
vector 3237  Network.dyn_peer[12]  lookupHopsSig:vector  ETV
vector 3238  Network.dyn_peer[12]  lookupStabilitySig:vector  ETV
vector 3239  Network.dyn_peer[12]  lookupTimeSig:vector  ETV
vector 3240  Network.dyn_peer[13]  lookupHopsSig:vector  ETV
vector 3241  Network.dyn_peer[13]  lookupStabilitySig:vector  ETV
vector 3242  Network.dyn_peer[13]  lookupTimeSig:vector  ETV
vector 3243  Network.dyn_peer[14]  lookupHopsSig:vector  ETV
vector 3244  Network.dyn_peer[14]  lookupStabilitySig:vector  ETV
vector 3245  Network.dyn_peer[14]  lookupTimeSig:vector  ETV
vector 3246  Network.dyn_peer[15]  lookupHopsSig:vector  ETV
vector 3247  Network.dyn_peer[15]  lookupStabilitySig:vector  ETV
vector 3248  Network.dyn_peer[15]  lookupTimeSig:vector  ETV
vector 3249  Network.dyn_peer[16]  lookupHopsSig:vector  ETV
vector 3250  Network.dyn_peer[16]  lookupStabilitySig:vector  ETV
vector 3251  Network.dyn_peer[16]  lookupTimeSig:vector  ETV
vector 3252  Network.dyn_peer[17]  lookupHopsSig:vector  ETV
vector 3253  Network.dyn_peer[17]  lookupStabilitySig:vector  ETV
vector 3254  Network.dyn_peer[17]  lookupTimeSig:vector  ETV
vector 3255  Network.dyn_peer[18]  lookupHopsSig:vector  ETV
vector 3256  Network.dyn_peer[18]  lookupStabilitySig:vector  ETV
vector 3257  Network.dyn_peer[18]  lookupTimeSig:vector  ETV
vector 3258  Network.dyn_peer[19]  lookupHopsSig:vector  ETV
vector 3259  Network.dyn_peer[19]  lookupStabilitySig:vector  ETV
vector 3260  Network.dyn_peer[19]  lookupTimeSig:vector  ETV
vector 3261  Network.dyn_peer[20]  lookupHopsSig:vector  ETV
vector 3262  Network.dyn_peer[20]  lookupStabilitySig:vector  ETV
vector 3263  Network.dyn_peer[20]  lookupTimeSig:vector  ETV
vector 3264  Network.dyn_peer[21]  lookupHopsSig:vector  ETV
vector 3265  Network.dyn_peer[21]  lookupStabilitySig:vector  ETV
vector 3266  Network.dyn_peer[21]  lookupTimeSig:vector  ETV
vector 3267  Network.dyn_peer[22]  lookupHopsSig:vector  ETV
vector 3268  Network.dyn_peer[22]  lookupStabilitySig:vector  ETV
vector 3269  Network.dyn_peer[22]  lookupTimeSig:vector  ETV
vector 3270  Network.dyn_peer[23]  lookupHopsSig:vector  ETV
vector 3271  Network.dyn_peer[23]  lookupStabilitySig:vector  ETV
vector 3272  Network.dyn_peer[23]  lookupTimeSig:vector  ETV
vector 3273  Network.dyn_peer[24]  lookupHopsSig:vector  ETV
vector 3274  Network.dyn_peer[24]  lookupStabilitySig:vector  ETV
vector 3275  Network.dyn_peer[24]  lookupTimeSig:vector  ETV
vector 3276  Network.dyn_peer[25]  lookupHopsSig:vector  ETV
vector 3277  Network.dyn_peer[25]  lookupStabilitySig:vector  ETV
vector 3278  Network.dyn_peer[25]  lookupTimeSig:vector  ETV
vector 3279  Network.dyn_peer[26]  lookupHopsSig:vector  ETV
vector 3280  Network.dyn_peer[26]  lookupStabilitySig:vector  ETV
vector 3281  Network.dyn_peer[26]  lookupTimeSig:vector  ETV
vector 3282  Network.dyn_peer[27]  lookupHopsSig:vector  ETV
vector 3283  Network.dyn_peer[27]  lookupStabilitySig:vector  ETV
vector 3284  Network.dyn_peer[27]  lookupTimeSig:vector  ETV
vector 3285  Network.dyn_peer[28]  lookupHopsSig:vector  ETV
vector 3286  Network.dyn_peer[28]  lookupStabilitySig:vector  ETV
vector 3287  Network.dyn_peer[28]  lookupTimeSig:vector  ETV
vector 3288  Network.dyn_peer[29]  lookupHopsSig:vector  ETV
vector 3289  Network.dyn_peer[29]  lookupStabilitySig:vector  ETV
vector 3290  Network.dyn_peer[29]  lookupTimeSig:vector  ETV
vector 3291  Network.dyn_peer[30]  lookupHopsSig:vector  ETV
vector 3292  Network.dyn_peer[30]  lookupStabilitySig:vector  ETV
vector 3293  Network.dyn_peer[30]  lookupTimeSig:vector  ETV
vector 3294  Network.dyn_peer[31]  lookupHopsSig:vector  ETV
vector 3295  Network.dyn_peer[31]  lookupStabilitySig:vector  ETV
vector 3296  Network.dyn_peer[31]  lookupTimeSig:vector  ETV
3201	33	21.2	2
3201	37	21.5	2
3201	41	21.705995364843	1
3201	45	21.912620345593	1
3201	1087	53.1	1
3201	1090	53.3	1
3201	1094	53.502688945615	1
3201	1100	53.725021470235	1
3201	2132	85	0
3201	2136	85.205949994116	1
3201	2141	85.417304120638	1
3201	2147	85.628828051384	1
3201	3163	117.2	2
3201	3167	117.5	2
3201	3172	117.809787851676	2
3201	3180	118.020509670694	1
3201	4214	149.2	2
3201	4217	149.4	1
3201	4224	149.615442303225	1
3201	4228	149.823715453868	1
3201	5241	181.1	1
3201	5245	181.4	2
3201	5249	181.602434800828	1
3201	5253	181.802752973439	1
3201	6276	213.1	1
3201	6280	213.4	2
3201	6285	213.705370062233	2
3201	6289	213.912340681757	1
3201	7327	245	0
3201	7331	245.3	2
3201	7337	245.603373736934	2
3201	7350	245.853769044288	1
3201	8391	277.1	1
3201	8396	277.403623398921	2
3201	8400	277.612752820808	1
3201	8411	277.93877241428	2
3201	9421	309.1	1
3201	9428	309.425707834773	2
3201	9432	309.634386261306	1
3201	9436	309.841328670676	1
3201	10455	341.1	1
3201	10459	341.4	2
3201	10463	341.600060355279	1
3201	10469	341.902892392027	2
3201	11481	373.1	1
3201	11484	373.3	1
3201	11490	373.606319625076	2
3201	11495	373.910406813615	2
3201	12531	405.1	1
3201	12535	405.306778874432	1
3201	12540	405.515410644695	1
3201	12544	405.721258642197	1
3201	13575	437.2	2
3201	13578	437.4	1
3201	13582	437.600613828317	1
3201	13588	437.804369697639	1
3201	14610	469.1	1
3201	14613	469.3	1
3201	14618	469.509922785747	1
3201	14622	469.717091098075	1
3201	15628	501.2	2
3201	15631	501.4	1
3201	15636	501.61248080155	1
3201	15640	501.816172506391	1
3201	16667	533.2	2
3201	16670	533.4	1
3201	16675	533.609067099057	1
3201	16679	533.812434479615	1
3201	17674	565.2	2
3201	17677	565.4	1
3201	17682	565.700424424344	2
3201	17687	565.907199433789	1
3201	18680	597.2	2
3201	18683	597.4	1
3201	18688	597.706989864015	2
3201	18693	597.916659792369	1
3201	19722	629.1	1
3201	19726	629.309496343592	1
3201	19732	629.614436581564	2
3201	19742	629.84789107945	1
3201	20772	661.1	1
3201	20775	661.3	1
3201	20779	661.505962626885	1
3201	20784	661.713472781662	1
3201	21794	693.1	1
3201	21797	693.3	1
3201	21802	693.509005136598	1
3201	21808	693.713200059787	1
3201	22820	725.2	2
3201	22825	725.503277419533	2
3201	22829	725.709230324418	1
3201	22835	725.930894566266	1
3201	23859	757.2	2
3201	23862	757.4	1
3201	23868	757.710071407946	2
3201	23872	757.914624271593	1
3201	24893	789	0
3201	24898	789.301745149462	2
3201	24903	789.608581427055	2
3201	24907	789.817922889183	1
3201	25934	821.2	2
3201	25938	821.5	2
3201	25947	821.823230213126	2
3201	25955	822.035329409488	1
3201	26988	853.1	1
3201	26992	853.4	2
3201	26997	853.606143203068	1
3201	27002	853.820755992882	1
3201	27989	885	0
3201	27994	885.308259512551	2
3201	27998	885.512063666614	1
3201	28009	885.747875881676	1
3201	29029	917.1	1
3201	29034	917.408619486114	2
3201	29038	917.6104306741	1
3201	29047	917.843323403693	1
3201	30035	949.1	1
3201	30038	949.3	1
3201	30045	949.602524105099	2
3201	30050	949.812064477608	1
3201	31075	981.2	2
3201	31080	981.505387129334	2
3201	31084	981.710553844747	1
3201	31090	981.919078308295	1
3201	32122	1013.2	2
3201	32125	1013.4	1
3201	32132	1013.618652069566	1
3201	32137	1013.923323986108	2
3201	33139	1045.2	2
3201	33142	1045.4	1
3201	33147	1045.702303369878	2
3201	33158	1045.949206781654	1
3201	34162	1077.1	1
3201	34166	1077.303891213983	1
3201	34171	1077.513765067752	1
3201	34176	1077.722850220317	1
3201	35193	1109.1	1
3201	35197	1109.4	2
3201	35202	1109.709728711387	2
3201	35206	1109.917869482538	1
3201	36201	1141.2	2
3201	36205	1141.5	2
3201	36209	1141.709347065964	1
3201	36214	1141.919945106114	1
3201	37221	1173.1	1
3201	37225	1173.4	2
3201	37229	1173.608347508248	1
3201	37235	1173.830173404557	1
3201	38262	1205.2	2
3201	38267	1205.40756702853	1
3201	38271	1205.612027312725	1
3201	38279	1205.834481546409	1
3201	39314	1237.2	2
3201	39317	1237.4	1
3201	39322	1237.706894353581	2
3201	39327	1237.916027077677	1
3201	40380	1269	0
3201	40383	1269.2	1
3201	40388	1269.505817587426	2
3201	40394	1269.719419044208	1
3201	41446	1301.1	1
3201	41452	1301.316367848506	1
3201	41456	1301.520678842197	1
3201	41466	1301.849561375214	2
3201	42494	1333.2	2
3201	42498	1333.406446246588	1
3201	42503	1333.613857440618	1
3201	42509	1333.828053350764	1
3201	43543	1365.2	2
3201	43546	1365.4	1
3201	43552	1365.606097117961	1
3201	43557	1365.824026845518	1
3201	44594	1397.2	2
3201	44597	1397.4	1
3201	44601	1397.606061802466	1
3201	44606	1397.80819623465	1
3201	45626	1429	0
3201	45630	1429.3	2
3201	45634	1429.502961336914	1
3201	45639	1429.704689324925	1
3201	46658	1461.1	1
3201	46661	1461.3	1
3201	46667	1461.605157068753	2
3201	46676	1461.851349938072	1
3201	47701	1493.1	1
3201	47704	1493.3	1
3201	47709	1493.505580195537	1
3201	47717	1493.820976504662	2
3201	48735	1525.2	2
3201	48739	1525.5	2
3201	48744	1525.802140305703	2
3201	48751	1526.005056103809	1
3201	49785	1557.1	1
3201	49788	1557.3	1
3201	49792	1557.502453096746	1
3201	49802	1557.737619719091	1
3201	50815	1589.1	1
3201	50818	1589.3	1
3201	50824	1589.514875709241	1
3201	50829	1589.729164469219	1
3201	51888	1621.2	2
3201	51891	1621.4	1
3201	51896	1621.609764003441	1
3201	51907	1621.847778002246	1
3201	52940	1653.1	1
3201	52943	1653.3	1
3201	52950	1653.519021075874	1
3201	52954	1653.726203512135	1
3201	53948	1685.1	1
3201	53954	1685.407083078319	2
3201	53961	1685.718839930445	2
3201	53971	1685.954331976774	1
3201	54992	1717	0
3201	54996	1717.3	2
3201	55000	1717.505493104329	1
3201	55007	1717.720534465864	1
3201	56016	1749.1	1
3201	56020	1749.30125390446	1
3201	56024	1749.504704313394	1
3201	56029	1749.810220700469	2
3201	57047	1781.1	1
3201	57051	1781.4	2
3201	57056	1781.704428514281	2
3201	57067	1781.946711186019	1
3201	58086	1813.2	2
3201	58093	1813.424232197248	1
3201	58106	1813.662429154619	1
3201	58124	1813.935419856464	1
3201	59134	1845	0
3201	59139	1845.304308068102	2
3201	59143	1845.505194875261	1
3201	59149	1845.81533674157	2
3201	60173	1877.2	2
3201	60180	1877.516159588069	2
3201	60186	1877.724693418105	1
3201	60190	1877.933365806345	1
3201	61243	1909	0
3201	61247	1909.2096491277	1
3201	61251	1909.412831352142	1
3201	61255	1909.621248778093	1
3201	62291	1941.1	1
3201	62295	1941.4	2
3201	62299	1941.60629041309	1
3201	62306	1941.823018003324	1
3201	63362	1973.2	2
3201	63365	1973.4	1
3201	63369	1973.602812364236	1
3201	63380	1973.852624340043	1
3201	64424	2005.2	2
3201	64427	2005.4	1
3201	64431	2005.604605903339	1
3201	64435	2005.805541168681	1
3201	65481	2037.2	2
3201	65484	2037.4	1
3201	65489	2037.701285460218	2
3201	65497	2038.001304337518	2
3202	33	21.2	0.75
3202	37	21.5	0.75
3202	41	21.705995364843	0.875
3202	45	21.912620345593	0.875
3202	1087	53.1	0.875
3202	1090	53.3	0.875
3202	1094	53.502688945615	0.875
3202	1100	53.725021470235	0.875
3202	2132	85	1
3202	2136	85.205949994116	0.875
3202	2141	85.417304120638	0.875
3202	2147	85.628828051384	0.875
3202	3163	117.2	0.75
3202	3167	117.5	0.75
3202	3172	117.809787851676	0.75
3202	3180	118.020509670694	0.875
3202	4214	149.2	0.75
3202	4217	149.4	0.875
3202	4224	149.615442303225	0.875
3202	4228	149.823715453868	0.875
3202	5241	181.1	0.875
3202	5245	181.4	0.75
3202	5249	181.602434800828	0.875
3202	5253	181.802752973439	0.875
3202	6276	213.1	0.875
3202	6280	213.4	0.75
3202	6285	213.705370062233	0.75
3202	6289	213.912340681757	0.875
3202	7327	245	1
3202	7331	245.3	0.75
3202	7337	245.603373736934	0.75
3202	7350	245.853769044288	0.875
3202	8391	277.1	0.875
3202	8396	277.403623398921	0.75
3202	8400	277.612752820808	0.875
3202	8411	277.93877241428	0.75
3202	9421	309.1	0.875
3202	9428	309.425707834773	0.75
3202	9432	309.634386261306	0.875
3202	9436	309.841328670676	0.875
3202	10455	341.1	0.875
3202	10459	341.4	0.75
3202	10463	341.600060355279	0.875
3202	10469	341.902892392027	0.75
3202	11481	373.1	0.875
3202	11484	373.3	0.875
3202	11490	373.606319625076	0.75
3202	11495	373.910406813615	0.75
3202	12531	405.1	0.875
3202	12535	405.306778874432	0.875
3202	12540	405.515410644695	0.875
3202	12544	405.721258642197	0.875
3202	13575	437.2	0.75
3202	13578	437.4	0.875
3202	13582	437.600613828317	0.875
3202	13588	437.804369697639	0.875
3202	14610	469.1	0.875
3202	14613	469.3	0.875
3202	14618	469.509922785747	0.875
3202	14622	469.717091098075	0.875
3202	15628	501.2	0.75
3202	15631	501.4	0.875
3202	15636	501.61248080155	0.875
3202	15640	501.816172506391	0.875
3202	16667	533.2	0.75
3202	16670	533.4	0.875
3202	16675	533.609067099057	0.875
3202	16679	533.812434479615	0.875
3202	17674	565.2	0.75
3202	17677	565.4	0.875
3202	17682	565.700424424344	0.75
3202	17687	565.907199433789	0.875
3202	18680	597.2	0.75
3202	18683	597.4	0.875
3202	18688	597.706989864015	0.75
3202	18693	597.916659792369	0.875
3202	19722	629.1	0.875
3202	19726	629.309496343592	0.875
3202	19732	629.614436581564	0.75
3202	19742	629.84789107945	0.875
3202	20772	661.1	0.875
3202	20775	661.3	0.875
3202	20779	661.505962626885	0.875
3202	20784	661.713472781662	0.875
3202	21794	693.1	0.875
3202	21797	693.3	0.875
3202	21802	693.509005136598	0.875
3202	21808	693.713200059787	0.875
3202	22820	725.2	0.75
3202	22825	725.503277419533	0.75
3202	22829	725.709230324418	0.875
3202	22835	725.930894566266	0.875
3202	23859	757.2	0.75
3202	23862	757.4	0.875
3202	23868	757.710071407946	0.75
3202	23872	757.914624271593	0.875
3202	24893	789	1
3202	24898	789.301745149462	0.75
3202	24903	789.608581427055	0.75
3202	24907	789.817922889183	0.875
3202	25934	821.2	0.75
3202	25938	821.5	0.75
3202	25947	821.823230213126	0.75
3202	25955	822.035329409488	0.875
3202	26988	853.1	0.875
3202	26992	853.4	0.75
3202	26997	853.606143203068	0.875
3202	27002	853.820755992882	0.875
3202	27989	885	1
3202	27994	885.308259512551	0.75
3202	27998	885.512063666614	0.875
3202	28009	885.747875881676	0.875
3202	29029	917.1	0.875
3202	29034	917.408619486114	0.75
3202	29038	917.6104306741	0.875
3202	29047	917.843323403693	0.875
3202	30035	949.1	0.875
3202	30038	949.3	0.875
3202	30045	949.602524105099	0.75
3202	30050	949.812064477608	0.875
3202	31075	981.2	0.75
3202	31080	981.505387129334	0.75
3202	31084	981.710553844747	0.875
3202	31090	981.919078308295	0.875
3202	32122	1013.2	0.75
3202	32125	1013.4	0.875
3202	32132	1013.618652069566	0.875
3202	32137	1013.923323986108	0.75
3202	33139	1045.2	0.75
3202	33142	1045.4	0.875
3202	33147	1045.702303369878	0.75
3202	33158	1045.949206781654	0.875
3202	34162	1077.1	0.875
3202	34166	1077.303891213983	0.875
3202	34171	1077.513765067752	0.875
3202	34176	1077.722850220317	0.875
3202	35193	1109.1	0.875
3202	35197	1109.4	0.75
3202	35202	1109.709728711387	0.75
3202	35206	1109.917869482538	0.875
3202	36201	1141.2	0.75
3202	36205	1141.5	0.75
3202	36209	1141.709347065964	0.875
3202	36214	1141.919945106114	0.875
3202	37221	1173.1	0.875
3202	37225	1173.4	0.75
3202	37229	1173.608347508248	0.875
3202	37235	1173.830173404557	0.875
3202	38262	1205.2	0.75
3202	38267	1205.40756702853	0.875
3202	38271	1205.612027312725	0.875
3202	38279	1205.834481546409	0.875
3202	39314	1237.2	0.75
3202	39317	1237.4	0.875
3202	39322	1237.706894353581	0.75
3202	39327	1237.916027077677	0.875
3202	40380	1269	1
3202	40383	1269.2	0.875
3202	40388	1269.505817587426	0.75
3202	40394	1269.719419044208	0.875
3202	41446	1301.1	0.875
3202	41452	1301.316367848506	0.875
3202	41456	1301.520678842197	0.875
3202	41466	1301.849561375214	0.75
3202	42494	1333.2	0.75
3202	42498	1333.406446246588	0.875
3202	42503	1333.613857440618	0.875
3202	42509	1333.828053350764	0.875
3202	43543	1365.2	0.75
3202	43546	1365.4	0.875
3202	43552	1365.606097117961	0.875
3202	43557	1365.824026845518	0.875
3202	44594	1397.2	0.75
3202	44597	1397.4	0.875
3202	44601	1397.606061802466	0.875
3202	44606	1397.80819623465	0.875
3202	45626	1429	1
3202	45630	1429.3	0.75
3202	45634	1429.502961336914	0.875
3202	45639	1429.704689324925	0.875
3202	46658	1461.1	0.875
3202	46661	1461.3	0.875
3202	46667	1461.605157068753	0.75
3202	46676	1461.851349938072	0.875
3202	47701	1493.1	0.875
3202	47704	1493.3	0.875
3202	47709	1493.505580195537	0.875
3202	47717	1493.820976504662	0.75
3202	48735	1525.2	0.75
3202	48739	1525.5	0.75
3202	48744	1525.802140305703	0.75
3202	48751	1526.005056103809	0.875
3202	49785	1557.1	0.875
3202	49788	1557.3	0.875
3202	49792	1557.502453096746	0.875
3202	49802	1557.737619719091	0.875
3202	50815	1589.1	0.875
3202	50818	1589.3	0.875
3202	50824	1589.514875709241	0.875
3202	50829	1589.729164469219	0.875
3202	51888	1621.2	0.75
3202	51891	1621.4	0.875
3202	51896	1621.609764003441	0.875
3202	51907	1621.847778002246	0.875
3202	52940	1653.1	0.875
3202	52943	1653.3	0.875
3202	52950	1653.519021075874	0.875
3202	52954	1653.726203512135	0.875
3202	53948	1685.1	0.875
3202	53954	1685.407083078319	0.75
3202	53961	1685.718839930445	0.75
3202	53971	1685.954331976774	0.875
3202	54992	1717	1
3202	54996	1717.3	0.75
3202	55000	1717.505493104329	0.875
3202	55007	1717.720534465864	0.875
3202	56016	1749.1	0.875
3202	56020	1749.30125390446	0.875
3202	56024	1749.504704313394	0.875
3202	56029	1749.810220700469	0.75
3202	57047	1781.1	0.875
3202	57051	1781.4	0.75
3202	57056	1781.704428514281	0.75
3202	57067	1781.946711186019	0.875
3202	58086	1813.2	0.75
3202	58093	1813.424232197248	0.875
3202	58106	1813.662429154619	0.875
3202	58124	1813.935419856464	0.875
3202	59134	1845	1
3202	59139	1845.304308068102	0.75
3202	59143	1845.505194875261	0.875
3202	59149	1845.81533674157	0.75
3202	60173	1877.2	0.75
3202	60180	1877.516159588069	0.75
3202	60186	1877.724693418105	0.875
3202	60190	1877.933365806345	0.875
3202	61243	1909	1
3202	61247	1909.2096491277	0.875
3202	61251	1909.412831352142	0.875
3202	61255	1909.621248778093	0.875
3202	62291	1941.1	0.875
3202	62295	1941.4	0.75
3202	62299	1941.60629041309	0.875
3202	62306	1941.823018003324	0.875
3202	63362	1973.2	0.75
3202	63365	1973.4	0.875
3202	63369	1973.602812364236	0.875
3202	63380	1973.852624340043	0.875
3202	64424	2005.2	0.75
3202	64427	2005.4	0.875
3202	64431	2005.604605903339	0.875
3202	64435	2005.805541168681	0.875
3202	65481	2037.2	0.75
3202	65484	2037.4	0.875
3202	65489	2037.701285460218	0.75
3202	65497	2038.001304337518	0.75
3203	33	21.2	0.2
3203	37	21.5	0.3
3203	41	21.705995364843	0.2
3203	45	21.912620345593	0.2
3203	1087	53.1	0.1
3203	1090	53.3	0.2
3203	1094	53.502688945615	0.2
3203	1100	53.725021470235	0.2
3203	2132	85	0
3203	2136	85.205949994116	0.2
3203	2141	85.417304120638	0.2
3203	2147	85.628828051384	0.2
3203	3163	117.2	0.2
3203	3167	117.5	0.3
3203	3172	117.809787851676	0.3
3203	3180	118.020509670694	0.2
3203	4214	149.2	0.2
3203	4217	149.4	0.2
3203	4224	149.615442303225	0.2
3203	4228	149.823715453868	0.2
3203	5241	181.1	0.1
3203	5245	181.4	0.3
3203	5249	181.602434800828	0.2
3203	5253	181.802752973439	0.2
3203	6276	213.1	0.1
3203	6280	213.4	0.3
3203	6285	213.705370062233	0.3
3203	6289	213.912340681757	0.2
3203	7327	245	0
3203	7331	245.3	0.3
3203	7337	245.603373736934	0.3
3203	7350	245.853769044288	0.2
3203	8391	277.1	0.1
3203	8396	277.403623398921	0.3
3203	8400	277.612752820808	0.2
3203	8411	277.93877241428	0.3
3203	9421	309.1	0.1
3203	9428	309.425707834773	0.3
3203	9432	309.634386261306	0.2
3203	9436	309.841328670676	0.2
3203	10455	341.1	0.1
3203	10459	341.4	0.3
3203	10463	341.600060355279	0.2
3203	10469	341.902892392027	0.3
3203	11481	373.1	0.1
3203	11484	373.3	0.2
3203	11490	373.606319625076	0.3
3203	11495	373.910406813615	0.3
3203	12531	405.1	0.1
3203	12535	405.306778874432	0.2
3203	12540	405.515410644695	0.2
3203	12544	405.721258642197	0.2
3203	13575	437.2	0.2
3203	13578	437.4	0.2
3203	13582	437.600613828317	0.2
3203	13588	437.804369697639	0.2
3203	14610	469.1	0.1
3203	14613	469.3	0.2
3203	14618	469.509922785747	0.2
3203	14622	469.717091098075	0.2
3203	15628	501.2	0.2
3203	15631	501.4	0.2
3203	15636	501.61248080155	0.2
3203	15640	501.816172506391	0.2
3203	16667	533.2	0.2
3203	16670	533.4	0.2
3203	16675	533.609067099057	0.2
3203	16679	533.812434479615	0.2
3203	17674	565.2	0.2
3203	17677	565.4	0.2
3203	17682	565.700424424344	0.3
3203	17687	565.907199433789	0.2
3203	18680	597.2	0.2
3203	18683	597.4	0.2
3203	18688	597.706989864015	0.3
3203	18693	597.916659792369	0.2
3203	19722	629.1	0.1
3203	19726	629.309496343592	0.2
3203	19732	629.614436581564	0.3
3203	19742	629.84789107945	0.2
3203	20772	661.1	0.1
3203	20775	661.3	0.2
3203	20779	661.505962626885	0.2
3203	20784	661.713472781662	0.2
3203	21794	693.1	0.1
3203	21797	693.3	0.2
3203	21802	693.509005136598	0.2
3203	21808	693.713200059787	0.2
3203	22820	725.2	0.2
3203	22825	725.503277419533	0.3
3203	22829	725.709230324418	0.2
3203	22835	725.930894566266	0.2
3203	23859	757.2	0.2
3203	23862	757.4	0.2
3203	23868	757.710071407946	0.3
3203	23872	757.914624271593	0.2
3203	24893	789	0
3203	24898	789.301745149462	0.3
3203	24903	789.608581427055	0.3
3203	24907	789.817922889183	0.2
3203	25934	821.2	0.2
3203	25938	821.5	0.3
3203	25947	821.823230213126	0.3
3203	25955	822.035329409488	0.2
3203	26988	853.1	0.1
3203	26992	853.4	0.3
3203	26997	853.606143203068	0.2
3203	27002	853.820755992882	0.2
3203	27989	885	0
3203	27994	885.308259512551	0.3
3203	27998	885.512063666614	0.2
3203	28009	885.747875881676	0.2
3203	29029	917.1	0.1
3203	29034	917.408619486114	0.3
3203	29038	917.6104306741	0.2
3203	29047	917.843323403693	0.2
3203	30035	949.1	0.1
3203	30038	949.3	0.2
3203	30045	949.602524105099	0.3
3203	30050	949.812064477608	0.2
3203	31075	981.2	0.2
3203	31080	981.505387129334	0.3
3203	31084	981.710553844747	0.2
3203	31090	981.919078308295	0.2
3203	32122	1013.2	0.2
3203	32125	1013.4	0.2
3203	32132	1013.618652069566	0.2
3203	32137	1013.923323986108	0.3
3203	33139	1045.2	0.2
3203	33142	1045.4	0.2
3203	33147	1045.702303369878	0.3
3203	33158	1045.949206781654	0.2
3203	34162	1077.1	0.1
3203	34166	1077.303891213983	0.2
3203	34171	1077.513765067752	0.2
3203	34176	1077.722850220317	0.2
3203	35193	1109.1	0.1
3203	35197	1109.4	0.3
3203	35202	1109.709728711387	0.3
3203	35206	1109.917869482538	0.2
3203	36201	1141.2	0.2
3203	36205	1141.5	0.3
3203	36209	1141.709347065964	0.2
3203	36214	1141.919945106114	0.2
3203	37221	1173.1	0.1
3203	37225	1173.4	0.3
3203	37229	1173.608347508248	0.2
3203	37235	1173.830173404557	0.2
3203	38262	1205.2	0.2
3203	38267	1205.40756702853	0.2
3203	38271	1205.612027312725	0.2
3203	38279	1205.834481546409	0.2
3203	39314	1237.2	0.2
3203	39317	1237.4	0.2
3203	39322	1237.706894353581	0.3
3203	39327	1237.916027077677	0.2
3203	40380	1269	0
3203	40383	1269.2	0.2
3203	40388	1269.505817587426	0.3
3203	40394	1269.719419044208	0.2
3203	41446	1301.1	0.1
3203	41452	1301.316367848506	0.2
3203	41456	1301.520678842197	0.2
3203	41466	1301.849561375214	0.3
3203	42494	1333.2	0.2
3203	42498	1333.406446246588	0.2
3203	42503	1333.613857440618	0.2
3203	42509	1333.828053350764	0.2
3203	43543	1365.2	0.2
3203	43546	1365.4	0.2
3203	43552	1365.606097117961	0.2
3203	43557	1365.824026845518	0.2
3203	44594	1397.2	0.2
3203	44597	1397.4	0.2
3203	44601	1397.606061802466	0.2
3203	44606	1397.80819623465	0.2
3203	45626	1429	0
3203	45630	1429.3	0.3
3203	45634	1429.502961336914	0.2
3203	45639	1429.704689324925	0.2
3203	46658	1461.1	0.1
3203	46661	1461.3	0.2
3203	46667	1461.605157068753	0.3
3203	46676	1461.851349938072	0.2
3203	47701	1493.1	0.1
3203	47704	1493.3	0.2
3203	47709	1493.505580195537	0.2
3203	47717	1493.820976504662	0.3
3203	48735	1525.2	0.2
3203	48739	1525.5	0.3
3203	48744	1525.802140305703	0.3
3203	48751	1526.005056103809	0.2
3203	49785	1557.1	0.1
3203	49788	1557.3	0.2
3203	49792	1557.502453096746	0.2
3203	49802	1557.737619719091	0.2
3203	50815	1589.1	0.1
3203	50818	1589.3	0.2
3203	50824	1589.514875709241	0.2
3203	50829	1589.729164469219	0.2
3203	51888	1621.2	0.2
3203	51891	1621.4	0.2
3203	51896	1621.609764003441	0.2
3203	51907	1621.847778002246	0.2
3203	52940	1653.1	0.1
3203	52943	1653.3	0.2
3203	52950	1653.519021075874	0.2
3203	52954	1653.726203512135	0.2
3203	53948	1685.1	0.1
3203	53954	1685.407083078319	0.3
3203	53961	1685.718839930445	0.3
3203	53971	1685.954331976774	0.2
3203	54992	1717	0
3203	54996	1717.3	0.3
3203	55000	1717.505493104329	0.2
3203	55007	1717.720534465864	0.2
3203	56016	1749.1	0.1
3203	56020	1749.30125390446	0.2
3203	56024	1749.504704313394	0.2
3203	56029	1749.810220700469	0.3
3203	57047	1781.1	0.1
3203	57051	1781.4	0.3
3203	57056	1781.704428514281	0.3
3203	57067	1781.946711186019	0.2
3203	58086	1813.2	0.2
3203	58093	1813.424232197248	0.2
3203	58106	1813.662429154619	0.2
3203	58124	1813.935419856464	0.2
3203	59134	1845	0
3203	59139	1845.304308068102	0.3
3203	59143	1845.505194875261	0.2
3203	59149	1845.81533674157	0.3
3203	60173	1877.2	0.2
3203	60180	1877.516159588069	0.3
3203	60186	1877.724693418105	0.2
3203	60190	1877.933365806345	0.2
3203	61243	1909	0
3203	61247	1909.2096491277	0.2
3203	61251	1909.412831352142	0.2
3203	61255	1909.621248778093	0.2
3203	62291	1941.1	0.1
3203	62295	1941.4	0.3
3203	62299	1941.60629041309	0.2
3203	62306	1941.823018003324	0.2
3203	63362	1973.2	0.2
3203	63365	1973.4	0.2
3203	63369	1973.602812364236	0.2
3203	63380	1973.852624340043	0.2
3203	64424	2005.2	0.2
3203	64427	2005.4	0.2
3203	64431	2005.604605903339	0.2
3203	64435	2005.805541168681	0.2
3203	65481	2037.2	0.2
3203	65484	2037.4	0.2
3203	65489	2037.701285460218	0.3
3203	65497	2038.001304337518	0.3
3204	62	22.1	1
3204	67	22.316051937376	1
3204	79	22.559314136242	1
3204	92	22.797742525685	1
3204	1118	54.2	2
3204	1121	54.4	1
3204	1126	54.70802893992	2
3204	1130	54.917734316095	1
3204	2165	86.2	2
3204	2168	86.4	1
3204	2173	86.70745521086	2
3204	2178	86.920858765753	1
3204	3195	118.2	2
3204	3198	118.4	1
3204	3202	118.604693060279	1
3204	3213	118.946468006701	2
3204	4244	150	0
3204	4250	150.30362294624	2
3204	4255	150.520873618262	1
3204	4260	150.824906613462	2
3204	5271	182.2	2
3204	5276	182.410193108496	1
3204	5286	182.64014852653	1
3204	5292	182.858687939521	1
3204	6306	214.1	1
3204	6311	214.301749847579	1
3204	6316	214.603721708689	2
3204	6321	214.907281307555	2
3204	7367	246.1	1
3204	7373	246.411274803401	2
3204	7378	246.711389392406	2
3204	7383	246.922286836636	1
3204	8429	278.2	2
3204	8433	278.40698310459	1
3204	8438	278.712227015415	2
3204	8444	278.9290762083	1
3204	9453	310.1	1
3204	9457	310.4	2
3204	9462	310.606357797591	1
3204	9466	310.812925018302	1
3204	10487	342.2	2
3204	10492	342.508810776874	2
3204	10505	342.770659012477	1
3204	10515	343.090027833204	2
3204	11513	374.2	2
3204	11518	374.509215890618	2
3204	11526	374.737487493446	1
3204	11530	374.946003319343	1
3204	12560	406	0
3204	12564	406.3	2
3204	12572	406.524951676173	1
3204	12577	406.743672623222	1
3204	13606	438.2	2
3204	13610	438.5	2
3204	13614	438.706170817995	1
3204	13619	438.912314577092	1
3204	14639	470.1	1
3204	14644	470.405511580295	2
3204	14649	470.71028865618	2
3204	14659	471.026846549067	2
3204	15657	502.1	1
3204	15662	502.405651842847	2
3204	15667	502.711826865281	2
3204	15671	502.914991476178	1
3204	16697	534.2	2
3204	16700	534.4	1
3204	16706	534.609785612022	1
3204	16710	534.819732199093	1
3204	17705	566.2	2
3204	17708	566.4	1
3204	17712	566.607151193658	1
3204	17719	566.914705160542	2
3204	18711	598.2	2
3204	18715	598.5	2
3204	18720	598.716692504476	1
3204	18725	598.932190021372	1
3204	19760	630.2	2
3204	19763	630.4	1
3204	19767	630.608182409631	1
3204	19774	630.829889508111	1
3204	20802	662.2	2
3204	20807	662.506072810764	2
3204	20811	662.709766401857	1
3204	20815	662.916847956002	1
3204	21825	694.1	1
3204	21829	694.308925417955	1
3204	21834	694.515646187885	1
3204	21844	694.852098363475	2
3204	22853	726.2	2
3204	22857	726.5	2
3204	22862	726.702175164526	1
3204	22866	726.909273532643	1
3204	23890	758.2	2
3204	23894	758.5	2
3204	23899	758.705261248266	1
3204	23903	758.910792833799	1
3204	24925	790.2	2
3204	24929	790.5	2
3204	24934	790.706730562561	1
3204	24940	790.914845993898	1
3204	25970	822.2	2
3204	25977	822.5195002837	2