file 1014679 1369933137                                         
version 2
run Stability-59-20130528-00:53:56-21385
attr configname Stability
attr datetime 20130528-00:53:56
attr experiment Stability
attr inifile omnetpp.ini
attr iterationvars $0=1e1
attr iterationvars2 "$0=1e1, $repetition=9"
attr measurement $0=1e1
attr network Network
attr processid 21385
attr repetition 9
attr replication #9
attr resultdir results
attr runnumber 59
attr seedset 59
vector 5819  Network.churner  inGoingSizeSig:vector  ETV
5819	890760 123919 23 134834 20 133.534038000464 4097 0 31 124648 3814768
vector 5732  Network.dyn_peer[3]  lookupHopsSig:vector  ETV
5732	85217 8146 39 134522 20.04 132.985062291015 277 0 21 1178 7858
vector 5733  Network.dyn_peer[3]  lookupStabilitySig:vector  ETV
5733	93363 9062 39 134522 20.04 132.985062291015 277 -1.625 1 129.90277777612 105.30806326903
vector 5734  Network.dyn_peer[3]  lookupTimeSig:vector  ETV
5734	102425 8661 39 134522 20.04 132.985062291015 277 0 1.8 130.8 85.56
vector 5723  Network.dyn_peer[0]  lookupHopsSig:vector  ETV
5723	6435 8266 63 134656 20.11 133.194670601152 280 0 21 1275 9387
vector 5724  Network.dyn_peer[0]  lookupStabilitySig:vector  ETV
5724	14701 9222 63 134656 20.11 133.194670601152 280 -1.625 1 120.77777774632 108.07986108131
vector 5725  Network.dyn_peer[0]  lookupTimeSig:vector  ETV
5725	23923 8784 63 134656 20.11 133.194670601152 280 0 2 138.8 97
vector 5756  Network.dyn_peer[11]  lookupHopsSig:vector  ETV
5756	304722 8878 74 134832 20.12 133.533514552546 303 0 26 1265 8433
vector 5757  Network.dyn_peer[11]  lookupStabilitySig:vector  ETV
5757	313600 9898 74 134832 20.12 133.533514552546 303 -2.25 1 145.0694443956 118.7471064274
vector 5758  Network.dyn_peer[11]  lookupTimeSig:vector  ETV
5758	323498 9430 74 134832 20.12 133.533514552546 303 0 2.1 140.6 90.14
vector 5729  Network.dyn_peer[2]  lookupHopsSig:vector  ETV
5729	57452 8729 80 134427 20.13 132.869005475004 298 0 19 1219 8203
vector 5730  Network.dyn_peer[2]  lookupStabilitySig:vector  ETV
5730	66181 9740 80 134427 20.13 132.869005475004 298 -1.375 1 145.66666666418 121.48881172435
vector 5731  Network.dyn_peer[2]  lookupTimeSig:vector  ETV
5731	75921 9296 80 134427 20.13 132.869005475004 298 0 1.7 135.4 87.24
vector 5735  Network.dyn_peer[4]  lookupHopsSig:vector  ETV
5735	111086 9400 92 133610 20.15 132.018961241988 320 0 16 1233 7077
vector 5736  Network.dyn_peer[4]  lookupStabilitySig:vector  ETV
5736	120486 10439 92 133610 20.15 132.018961241988 320 -1 1 166.02777777612 122.35493826903
vector 5737  Network.dyn_peer[4]  lookupTimeSig:vector  ETV
5737	130925 10013 92 133610 20.15 132.018961241988 320 0 1.4 140.4 80.58
vector 5744  Network.dyn_peer[7]  lookupHopsSig:vector  ETV
5744	190922 9024 108 133740 20.18 132.163456540111 308 0 16 1238 7204
vector 5745  Network.dyn_peer[7]  lookupStabilitySig:vector  ETV
5745	199946 10035 108 133740 20.18 132.163456540111 308 -1 1 153.36111108959 111.1535493669
vector 5746  Network.dyn_peer[7]  lookupTimeSig:vector  ETV
5746	209981 9609 108 133740 20.18 132.163456540111 308 0 1.5 139.8 82.46
vector 5777  Network.dyn_peer[18]  lookupHopsSig:vector  ETV
5777	501826 8646 118 133382 20.19 131.838697042809 295 0 26 1253 8277
vector 5778  Network.dyn_peer[18]  lookupStabilitySig:vector  ETV
5778	510472 9593 118 133382 20.19 131.838697042809 295 -2.25 1 138.375 111.078125
vector 5779  Network.dyn_peer[18]  lookupTimeSig:vector  ETV
5779	520065 9201 118 133382 20.19 131.838697042809 295 0 2.3 139.3 89.19
vector 5750  Network.dyn_peer[9]  lookupHopsSig:vector  ETV
5750	248017 8173 124 134703 20.2 133.270138561029 279 0 19 1223 8181
vector 5751  Network.dyn_peer[9]  lookupStabilitySig:vector  ETV
5751	256190 9095 124 134703 20.2 133.270138561029 279 -1.375 1 126.25 101.1875
vector 5752  Network.dyn_peer[9]  lookupTimeSig:vector  ETV
5752	265285 8695 124 134703 20.2 133.270138561029 279 0 1.7 136.4 89.32
vector 5765  Network.dyn_peer[14]  lookupHopsSig:vector  ETV
5765	390658 9088 153 134819 20.25 133.51694796475 310 0 27 1205 7353
vector 5766  Network.dyn_peer[14]  lookupStabilitySig:vector  ETV
5766	399746 10135 153 134819 20.25 133.51694796475 310 -2.375 1 159.43055555224 123.69926697163
vector 5767  Network.dyn_peer[14]  lookupTimeSig:vector  ETV
5767	409881 9675 153 134819 20.25 133.51694796475 310 0 2.3 136.7 81.09
vector 5738  Network.dyn_peer[5]  lookupHopsSig:vector  ETV
5738	140938 7661 162 134348 20.26 132.765968952718 261 0 20 1172 8102
vector 5739  Network.dyn_peer[5]  lookupStabilitySig:vector  ETV
5739	148599 8538 162 134348 20.26 132.765968952718 261 -1.5 1 114.65277776122 94.686149681792
vector 5740  Network.dyn_peer[5]  lookupTimeSig:vector  ETV
5740	157137 8154 162 134348 20.26 132.765968952718 261 0 1.6 129.7 85.43
vector 5741  Network.dyn_peer[6]  lookupHopsSig:vector  ETV
5741	165291 8078 171 133399 20.27 131.85879096899 275 0 19 1162 7930
vector 5742  Network.dyn_peer[6]  lookupStabilitySig:vector  ETV
5742	173369 8968 171 133399 20.27 131.85879096899 275 -1.375 1 129.77777777612 108.44868826903
vector 5743  Network.dyn_peer[6]  lookupTimeSig:vector  ETV
5743	182337 8585 171 133399 20.27 131.85879096899 275 0 1.7 129 83.24
vector 5726  Network.dyn_peer[1]  lookupHopsSig:vector  ETV
5726	32707 7792 202 133469 20.32 131.902268287662 266 0 19 1244 8476
vector 5727  Network.dyn_peer[1]  lookupStabilitySig:vector  ETV
5727	40499 8673 202 133469 20.32 131.902268287662 266 -1.375 1 110.58333331347 87.486111097866
vector 5728  Network.dyn_peer[1]  lookupTimeSig:vector  ETV
5728	49172 8280 202 133469 20.32 131.902268287662 266 0 1.6 135 88.4
vector 5786  Network.dyn_peer[21]  lookupHopsSig:vector  ETV
5786	586658 8422 207 134599 20.32 133.11684796475 286 0 15 1166 7246
vector 5787  Network.dyn_peer[21]  lookupStabilitySig:vector  ETV
5787	595080 9342 207 134599 20.32 133.11684796475 286 -0.875 1 140.25 107.71875
vector 5788  Network.dyn_peer[21]  lookupTimeSig:vector  ETV
5788	604422 8949 207 134599 20.32 133.11684796475 286 0 1.4 129 77.38
vector 5768  Network.dyn_peer[15]  lookupHopsSig:vector  ETV
5768	419556 9154 230 134062 20.36 132.466184566918 311 0 15 1265 8201
vector 5769  Network.dyn_peer[15]  lookupStabilitySig:vector  ETV
5769	428710 10166 230 134062 20.36 132.466184566918 311 -0.875 1 153.02777773142 122.99614193852
vector 5770  Network.dyn_peer[15]  lookupTimeSig:vector  ETV
5770	438876 9730 230 134062 20.36 132.466184566918 311 0 1.4 142.1 90.37
vector 5771  Network.dyn_peer[16]  lookupHopsSig:vector  ETV
5771	448606 8816 239 133822 20.37 132.219720409291 300 0 23 1214 7572
vector 5772  Network.dyn_peer[16]  lookupStabilitySig:vector  ETV
5772	457422 9787 239 133822 20.37 132.219720409291 300 -1.875 1 148.25 114.8125
vector 5773  Network.dyn_peer[16]  lookupTimeSig:vector  ETV
5773	467209 9382 239 133822 20.37 132.219720409291 300 0 2.3 136.3 85.09
vector 5801  Network.dyn_peer[26]  lookupHopsSig:vector  ETV
5801	723270 9219 243 134084 20.37 132.474962291015 314 0 14 1161 6279
vector 5802  Network.dyn_peer[26]  lookupStabilitySig:vector  ETV
5802	732489 10208 243 134084 20.37 132.474962291015 314 -0.75 1 168.875 121.859375
vector 5803  Network.dyn_peer[26]  lookupTimeSig:vector  ETV
5803	742697 9824 243 134084 20.37 132.474962291015 314 0 1.3 132.6 73.22
vector 5774  Network.dyn_peer[17]  lookupHopsSig:vector  ETV
5774	476591 7949 252 134286 20.38 132.684962291015 271 0 20 1183 8141
vector 5775  Network.dyn_peer[17]  lookupStabilitySig:vector  ETV
5775	484540 8831 252 134286 20.38 132.684962291015 271 -1.5 1 123.25 102.4375
vector 5776  Network.dyn_peer[17]  lookupTimeSig:vector  ETV
5776	493371 8455 252 134286 20.38 132.684962291015 271 0 1.7 129.9 84.41
vector 5747  Network.dyn_peer[8]  lookupHopsSig:vector  ETV
5747	219590 8968 260 133278 20.39 131.738639689613 306 0 20 1241 7931
vector 5748  Network.dyn_peer[8]  lookupStabilitySig:vector  ETV
5748	228558 9937 260 133278 20.39 131.738639689613 306 -1.5 1 150.875 119.671875
vector 5749  Network.dyn_peer[8]  lookupTimeSig:vector  ETV
5749	238495 9522 260 133278 20.39 131.738639689613 306 0 1.8 138.8 85.76
vector 5753  Network.dyn_peer[10]  lookupHopsSig:vector  ETV
5753	273980 9671 271 134777 20.41 133.430486750921 330 0 18 1270 7524
vector 5754  Network.dyn_peer[10]  lookupStabilitySig:vector  ETV
5754	283651 10779 271 134777 20.41 133.430486750921 330 -1.25 1 171.31944444031 130.14564042695
vector 5755  Network.dyn_peer[10]  lookupTimeSig:vector  ETV
5755	294430 10292 271 134777 20.41 133.430486750921 330 0 1.6 143.5 84.25
vector 5783  Network.dyn_peer[20]  lookupHopsSig:vector  ETV
5783	557655 9132 275 134418 20.41 132.867970085494 311 0 22 1259 8353
vector 5784  Network.dyn_peer[20]  lookupStabilitySig:vector  ETV
5784	566787 10180 275 134418 20.41 132.867970085494 311 -1.75 1 153.625 126.765625
vector 5785  Network.dyn_peer[20]  lookupTimeSig:vector  ETV
5785	576967 9691 275 134418 20.41 132.867970085494 311 0 2 141.6 92.34
vector 5816  Network.dyn_peer[31]  lookupHopsSig:vector  ETV
5816	862549 8889 284 134732 20.42 133.31694796475 302 0 16 1241 7635
vector 5817  Network.dyn_peer[31]  lookupStabilitySig:vector  ETV
5817	871438 9867 284 134732 20.42 133.31694796475 302 -1 1 146.875 111.046875
vector 5818  Network.dyn_peer[31]  lookupTimeSig:vector  ETV
5818	881305 9455 284 134732 20.42 133.31694796475 302 0 1.5 137.8 83.18
vector 5789  Network.dyn_peer[22]  lookupHopsSig:vector  ETV
5789	613371 9229 291 133770 20.43 132.175832065935 314 0 29 1263 8381
vector 5790  Network.dyn_peer[22]  lookupStabilitySig:vector  ETV
5790	622600 10267 291 133770 20.43 132.175832065935 314 -2.625 1 156.16666665673 129.2569444312
vector 5791  Network.dyn_peer[22]  lookupTimeSig:vector  ETV
5791	632867 9826 291 133770 20.43 132.175832065935 314 0 2.3 141.8 89.68
vector 5762  Network.dyn_peer[13]  lookupHopsSig:vector  ETV
5762	361622 9144 302 133802 20.44 132.209720409291 312 0 22 1191 7301
vector 5763  Network.dyn_peer[13]  lookupStabilitySig:vector  ETV
5763	370766 10159 302 133802 20.44 132.209720409291 312 -1.75 1 163.125 128.328125
vector 5764  Network.dyn_peer[13]  lookupTimeSig:vector  ETV
5764	380925 9733 302 133802 20.44 132.209720409291 312 0 2 134.6 79.98
vector 5795  Network.dyn_peer[24]  lookupHopsSig:vector  ETV
5795	667910 8279 309 134624 20.45 133.151969599959 282 0 13 1141 6699
vector 5796  Network.dyn_peer[24]  lookupStabilitySig:vector  ETV
5796	676189 9212 309 134624 20.45 133.151969599959 282 -0.625 1 139.375 101.421875
vector 5797  Network.dyn_peer[24]  lookupTimeSig:vector  ETV
5797	685401 8807 309 134624 20.45 133.151969599959 282 0 1.3 126.6 73.76
vector 5798  Network.dyn_peer[25]  lookupHopsSig:vector  ETV
5798	694208 9141 316 134791 20.46 133.456832604935 312 0 18 1230 7362
vector 5799  Network.dyn_peer[25]  lookupStabilitySig:vector  ETV
5799	703349 10183 316 134791 20.46 133.456832604935 312 -1.25 1 158.25 119.53125
vector 5800  Network.dyn_peer[25]  lookupTimeSig:vector  ETV
5800	713532 9738 316 134791 20.46 133.456832604935 312 0 1.7 138.1 81.27
vector 5780  Network.dyn_peer[19]  lookupHopsSig:vector  ETV
5780	529266 8937 338 134449 20.5 132.887632229521 304 0 20 1236 8064
vector 5781  Network.dyn_peer[19]  lookupStabilitySig:vector  ETV
5781	538203 9946 338 134449 20.5 132.887632229521 304 -1.5 1 149.55555555224 121.05864197163
vector 5782  Network.dyn_peer[19]  lookupTimeSig:vector  ETV
5782	548149 9506 338 134449 20.5 132.887632229521 304 0 1.8 138.5 88.93
vector 5810  Network.dyn_peer[29]  lookupHopsSig:vector  ETV
5810	809491 8279 342 133977 20.5 132.371905673011 282 0 17 1175 7713
vector 5811  Network.dyn_peer[29]  lookupStabilitySig:vector  ETV
5811	817770 9229 342 133977 20.5 132.371905673011 282 -1.125 1 135.15277777612 108.80806326903
vector 5812  Network.dyn_peer[29]  lookupTimeSig:vector  ETV
5812	826999 8806 342 133977 20.5 132.371905673011 282 0 1.6 130.6 83.34
vector 5759  Network.dyn_peer[12]  lookupHopsSig:vector  ETV
5759	332928 9030 358 133431 20.53 131.883376851229 308 0 14 1251 7331
vector 5760  Network.dyn_peer[12]  lookupStabilitySig:vector  ETV
5760	341958 10046 358 133431 20.53 131.883376851229 308 -0.75 1 151.65277777612 109.83931326903
vector 5761  Network.dyn_peer[12]  lookupTimeSig:vector  ETV
5761	352004 9618 358 133431 20.53 131.883376851229 308 0 1.4 140.3 82.31
vector 5792  Network.dyn_peer[23]  lookupHopsSig:vector  ETV
5792	642693 7932 366 133518 20.54 131.929720409291 270 0 19 1147 7151
vector 5793  Network.dyn_peer[23]  lookupStabilitySig:vector  ETV
5793	650625 8846 366 133518 20.54 131.929720409291 270 -1.375 1 126.66666666418 95.051311724348
vector 5794  Network.dyn_peer[23]  lookupTimeSig:vector  ETV
5794	659471 8439 366 133518 20.54 131.929720409291 270 0 1.6 126.8 77.18
vector 5807  Network.dyn_peer[28]  lookupHopsSig:vector  ETV
5807	782337 8533 390 134145 20.59 132.516071743771 291 0 17 1152 7224
vector 5808  Network.dyn_peer[28]  lookupStabilitySig:vector  ETV
5808	790870 9525 390 134145 20.59 132.516071743771 291 -1.125 1 147.01388888806 115.89949845532
vector 5809  Network.dyn_peer[28]  lookupTimeSig:vector  ETV
5809	800395 9096 390 134145 20.59 132.516071743771 291 0 1.6 129.5 78.59
vector 5813  Network.dyn_peer[30]  lookupHopsSig:vector  ETV
5813	835805 8414 407 133882 20.61 132.302490453695 287 0 18 1178 7328
vector 5814  Network.dyn_peer[30]  lookupStabilitySig:vector  ETV
5814	844219 9373 407 133882 20.61 132.302490453695 287 -1.25 1 139.88888883591 106.94984569079
vector 5815  Network.dyn_peer[30]  lookupTimeSig:vector  ETV
5815	853592 8957 407 133882 20.61 132.302490453695 287 0 1.6 132 80.66
vector 5804  Network.dyn_peer[27]  lookupHopsSig:vector  ETV
5804	752521 9398 496 134089 20.78 132.482285413555 320 0 20 1312 8640
vector 5805  Network.dyn_peer[27]  lookupStabilitySig:vector  ETV
5805	761919 10416 496 134089 20.78 132.482285413555 320 -1.5 1 156.04166665673 127.0538194312
vector 5806  Network.dyn_peer[27]  lookupTimeSig:vector  ETV
5806	772335 10002 496 134089 20.78 132.482285413555 320 0 1.7 146 93.86
