version 2
run Stability-61-20130528-00:54:04-21385
attr configname Stability
attr datetime 20130528-00:54:04
attr experiment Stability
attr inifile omnetpp.ini
attr iterationvars $0=1e0
attr iterationvars2 "$0=1e0, $repetition=1"
attr measurement $0=1e0
attr network Network
attr processid 21385
attr repetition 1
attr replication #1
attr resultdir results
attr runnumber 61
attr seedset 61

vector 6013  Network.churner  inGoingSizeSig:vector  ETV
vector 5971  Network.dyn_peer[18]  lookupHopsSig:vector  ETV
vector 5972  Network.dyn_peer[18]  lookupStabilitySig:vector  ETV
vector 5973  Network.dyn_peer[18]  lookupTimeSig:vector  ETV
vector 5989  Network.dyn_peer[24]  lookupHopsSig:vector  ETV
vector 5990  Network.dyn_peer[24]  lookupStabilitySig:vector  ETV
vector 5991  Network.dyn_peer[24]  lookupTimeSig:vector  ETV
vector 6001  Network.dyn_peer[28]  lookupHopsSig:vector  ETV
vector 6002  Network.dyn_peer[28]  lookupStabilitySig:vector  ETV
vector 6003  Network.dyn_peer[28]  lookupTimeSig:vector  ETV
vector 6007  Network.dyn_peer[30]  lookupHopsSig:vector  ETV
vector 6008  Network.dyn_peer[30]  lookupStabilitySig:vector  ETV
vector 6009  Network.dyn_peer[30]  lookupTimeSig:vector  ETV
vector 5920  Network.dyn_peer[1]  lookupHopsSig:vector  ETV
vector 5921  Network.dyn_peer[1]  lookupStabilitySig:vector  ETV
vector 5922  Network.dyn_peer[1]  lookupTimeSig:vector  ETV
vector 5932  Network.dyn_peer[5]  lookupHopsSig:vector  ETV
vector 5933  Network.dyn_peer[5]  lookupStabilitySig:vector  ETV
vector 5934  Network.dyn_peer[5]  lookupTimeSig:vector  ETV
vector 5944  Network.dyn_peer[9]  lookupHopsSig:vector  ETV
vector 5945  Network.dyn_peer[9]  lookupStabilitySig:vector  ETV
vector 5946  Network.dyn_peer[9]  lookupTimeSig:vector  ETV
vector 5947  Network.dyn_peer[10]  lookupHopsSig:vector  ETV
vector 5948  Network.dyn_peer[10]  lookupStabilitySig:vector  ETV
vector 5949  Network.dyn_peer[10]  lookupTimeSig:vector  ETV
vector 5950  Network.dyn_peer[11]  lookupHopsSig:vector  ETV
vector 5951  Network.dyn_peer[11]  lookupStabilitySig:vector  ETV
vector 5952  Network.dyn_peer[11]  lookupTimeSig:vector  ETV
vector 5953  Network.dyn_peer[12]  lookupHopsSig:vector  ETV
vector 5954  Network.dyn_peer[12]  lookupStabilitySig:vector  ETV
vector 5955  Network.dyn_peer[12]  lookupTimeSig:vector  ETV
vector 5968  Network.dyn_peer[17]  lookupHopsSig:vector  ETV
vector 5969  Network.dyn_peer[17]  lookupStabilitySig:vector  ETV
vector 5970  Network.dyn_peer[17]  lookupTimeSig:vector  ETV
vector 5974  Network.dyn_peer[19]  lookupHopsSig:vector  ETV
vector 5975  Network.dyn_peer[19]  lookupStabilitySig:vector  ETV
vector 5976  Network.dyn_peer[19]  lookupTimeSig:vector  ETV
vector 5986  Network.dyn_peer[23]  lookupHopsSig:vector  ETV
vector 5987  Network.dyn_peer[23]  lookupStabilitySig:vector  ETV
vector 5988  Network.dyn_peer[23]  lookupTimeSig:vector  ETV
vector 6004  Network.dyn_peer[29]  lookupHopsSig:vector  ETV
vector 6005  Network.dyn_peer[29]  lookupStabilitySig:vector  ETV
vector 6006  Network.dyn_peer[29]  lookupTimeSig:vector  ETV
vector 5917  Network.dyn_peer[0]  lookupHopsSig:vector  ETV
vector 5918  Network.dyn_peer[0]  lookupStabilitySig:vector  ETV
vector 5919  Network.dyn_peer[0]  lookupTimeSig:vector  ETV
vector 5938  Network.dyn_peer[7]  lookupHopsSig:vector  ETV
vector 5939  Network.dyn_peer[7]  lookupStabilitySig:vector  ETV
vector 5940  Network.dyn_peer[7]  lookupTimeSig:vector  ETV
vector 5962  Network.dyn_peer[15]  lookupHopsSig:vector  ETV
vector 5963  Network.dyn_peer[15]  lookupStabilitySig:vector  ETV
vector 5964  Network.dyn_peer[15]  lookupTimeSig:vector  ETV
vector 5965  Network.dyn_peer[16]  lookupHopsSig:vector  ETV
vector 5966  Network.dyn_peer[16]  lookupStabilitySig:vector  ETV
vector 5967  Network.dyn_peer[16]  lookupTimeSig:vector  ETV
vector 5977  Network.dyn_peer[20]  lookupHopsSig:vector  ETV
vector 5978  Network.dyn_peer[20]  lookupStabilitySig:vector  ETV
vector 5979  Network.dyn_peer[20]  lookupTimeSig:vector  ETV
vector 5980  Network.dyn_peer[21]  lookupHopsSig:vector  ETV
vector 5981  Network.dyn_peer[21]  lookupStabilitySig:vector  ETV
vector 5982  Network.dyn_peer[21]  lookupTimeSig:vector  ETV
vector 5992  Network.dyn_peer[25]  lookupHopsSig:vector  ETV
vector 5993  Network.dyn_peer[25]  lookupStabilitySig:vector  ETV
vector 5994  Network.dyn_peer[25]  lookupTimeSig:vector  ETV
vector 5923  Network.dyn_peer[2]  lookupHopsSig:vector  ETV
vector 5924  Network.dyn_peer[2]  lookupStabilitySig:vector  ETV
vector 5925  Network.dyn_peer[2]  lookupTimeSig:vector  ETV
vector 5926  Network.dyn_peer[3]  lookupHopsSig:vector  ETV
vector 5927  Network.dyn_peer[3]  lookupStabilitySig:vector  ETV
vector 5928  Network.dyn_peer[3]  lookupTimeSig:vector  ETV
vector 5929  Network.dyn_peer[4]  lookupHopsSig:vector  ETV
vector 5930  Network.dyn_peer[4]  lookupStabilitySig:vector  ETV
vector 5931  Network.dyn_peer[4]  lookupTimeSig:vector  ETV
vector 5935  Network.dyn_peer[6]  lookupHopsSig:vector  ETV
vector 5936  Network.dyn_peer[6]  lookupStabilitySig:vector  ETV
vector 5937  Network.dyn_peer[6]  lookupTimeSig:vector  ETV
vector 5956  Network.dyn_peer[13]  lookupHopsSig:vector  ETV
vector 5957  Network.dyn_peer[13]  lookupStabilitySig:vector  ETV
vector 5958  Network.dyn_peer[13]  lookupTimeSig:vector  ETV
vector 6010  Network.dyn_peer[31]  lookupHopsSig:vector  ETV
vector 6011  Network.dyn_peer[31]  lookupStabilitySig:vector  ETV
vector 6012  Network.dyn_peer[31]  lookupTimeSig:vector  ETV
vector 5941  Network.dyn_peer[8]  lookupHopsSig:vector  ETV
vector 5942  Network.dyn_peer[8]  lookupStabilitySig:vector  ETV
vector 5943  Network.dyn_peer[8]  lookupTimeSig:vector  ETV
vector 5983  Network.dyn_peer[22]  lookupHopsSig:vector  ETV
vector 5984  Network.dyn_peer[22]  lookupStabilitySig:vector  ETV
vector 5985  Network.dyn_peer[22]  lookupTimeSig:vector  ETV
vector 5995  Network.dyn_peer[26]  lookupHopsSig:vector  ETV
vector 5996  Network.dyn_peer[26]  lookupStabilitySig:vector  ETV
vector 5997  Network.dyn_peer[26]  lookupTimeSig:vector  ETV
vector 5998  Network.dyn_peer[27]  lookupHopsSig:vector  ETV
vector 5999  Network.dyn_peer[27]  lookupStabilitySig:vector  ETV
vector 6000  Network.dyn_peer[27]  lookupTimeSig:vector  ETV
vector 5959  Network.dyn_peer[14]  lookupHopsSig:vector  ETV
vector 5960  Network.dyn_peer[14]  lookupStabilitySig:vector  ETV
vector 5961  Network.dyn_peer[14]  lookupTimeSig:vector  ETV
5917	215	20.201	2
5917	665	20.901	6
5917	782	21.110057421204	1
5917	1287	21.620501830764	4
5917	1398	21.722296873756	3
5917	1971	22.141840071677	3
5917	2105	22.251280861846	1
5917	2846	22.851280861846	6
5917	3087	23.052380861846	2
5917	3533	23.452380861846	3
5917	3991	23.861776739103	3
5917	4188	24.0481759181	3
5917	4525	24.3492759181	3
5917	5036	24.7492759181	4
5917	5374	25.04933644297	2
5917	5742	25.454669696764	3
5917	6468	26.158697294499	7
5917	6884	26.558697294499	3
5917	7347	26.968406609484	3
5917	7607	27.177559520756	1
5917	7893	27.378659520756	2
5917	8125	27.578659520756	1
5917	8423	27.786863136774	1
5917	8953	28.295442715599	4
5917	9250	28.596691764662	2
5917	9257	28.598001281512	2
5917	9755	28.999101281512	4
5917	10219	29.399101281512	3
5917	10364	29.506216134386	1
5917	10709	29.808223675934	3
5917	10949	30.011130332771	1
5917	11308	30.311916705399	2
5917	11443	30.417513492943	1
5917	11495	30.478986720634	5
5917	11703	30.588563621686	2
5917	12050	30.888563621686	2
5917	12698	31.394828257224	4
5917	12967	31.603463700537	1
5917	13126	31.704563700537	1
5917	13633	32.106227577893	3
5917	13846	32.307327577893	2
5917	14472	32.907327577893	6
5917	15033	33.42356266297	5
5917	15044	33.424732180815	4
5917	15504	33.825832180815	4
5917	16349	34.525832180815	6
5917	16600	34.727621760254	2
5917	16860	34.927621760254	1
5917	17001	35.050195593741	1
5917	17014	35.055793390253	1
5917	17511	35.536458915532	5
5917	18099	36.029061472567	1
5917	18526	36.329061472567	2
5917	18845	36.631494134338	2
5917	19549	37.164716702966	7
5917	20014	37.539737811355	9
5917	20069	37.565936934036	3
5917	20275	37.749568336064	1
5917	20883	38.275828714026	8
5917	21036	38.457337818216	6
5917	21403	38.775801204856	10
5917	21409	38.77806943857	4
5917	21898	39.17916943857	5
5917	22266	39.47916943857	2
5917	23295	40.280300045993	5
5917	23301	40.286858225802	8
5917	23510	40.472096927632	9
5917	23927	40.873196927632	4
5917	24151	41.073196927632	1
5917	25179	41.880413901106	7
5917	25384	42.082411857411	1
5917	26165	42.783007742781	6
5917	26641	43.18361320123	3
5917	26783	43.287127994821	1
5917	28276	44.449694136852	3
5917	28467	44.651243768925	2
5917	29368	45.651243768925	10
5917	29586	45.853224197974	1
5917	30224	46.413942540718	5
5917	30390	46.554204383055	7
5917	30456	46.62089448495	2
5917	30533	46.702141207307	8
5917	30799	46.920972558771	2
5917	30933	47.020653027502	5
5917	30943	47.024919676809	0
5917	31476	47.426223677587	4
5917	32246	48.126223677587	6
5917	33575	49.336077713638	12
5917	34347	50.065452690117	3
5917	34519	50.249840317944	11
5917	34782	50.470269218186	4
5917	35208	50.854647296057	5
5917	35510	51.081818112936	8
5917	35590	51.159697476145	2
5917	36535	51.867779989941	7
5917	37519	52.867779989941	9
5917	37792	53.17388644163	2
5917	38158	53.485220289837	2
5917	38246	53.579901140281	2
5917	38889	54.090886101023	5
5917	39621	54.690886101023	5
5917	39891	54.900725251053	1
5917	40148	55.106911506811	2
5917	40429	55.306911506811	1
5917	41110	55.916059685002	6
5917	41438	56.218268146286	2
5917	41681	56.414314237028	2
5917	42000	56.725222788462	2
5917	42129	56.821239054928	5
5917	42210	56.905089629275	5
5917	42352	57.008421701404	1
5917	42745	57.308421701404	2
5917	42960	57.510645038363	1
5917	43574	57.913116442077	3
5917	43777	58.05143624796	2
5917	44366	58.488955183725	4
5917	45569	59.49095576214	11
5917	45959	59.79095576214	2
5917	46192	59.966592345261	2
5917	46210	59.992906026897	1
5917	46458	60.175383488386	1
5917	46477	60.180879346086	0
5917	47052	60.688220946328	4
5917	47560	61.101287811941	3
5917	47652	61.16224434089	3
5917	48056	61.469922265666	2
5917	48068	61.505102636965	3
5917	48348	61.707614224037	2
5917	48571	61.907614224037	1
5917	49684	62.767938937536	5
5917	50230	63.237289022788	1
5917	50402	63.38201376181	1
5917	51023	63.884884306369	5
5917	51647	64.484884306369	5
5917	51893	64.691329483608	1
5917	51903	64.697552981346	1
5917	52906	65.500561446833	8
5917	52917	65.503995758406	8
5917	53209	65.710168076848	1
5917	53211	65.710304893032	1
5917	53632	66.080820625675	5
5917	53880	66.281920625675	2
5917	55399	67.586570876145	13
5917	55553	67.690813753878	1
5917	56109	68.190813753878	4
5917	56384	68.396056432992	1
5917	56608	68.597156432992	2
5917	59157	70.593898525646	18
5917	59789	71.093898525646	6
5917	60109	71.400607485743	2
5917	61403	72.513665804492	9
5917	61665	72.721481566858	2
5917	62164	73.221481566858	4
5917	62961	74.026533420556	7
5917	63548	74.539016565947	4
5917	63865	74.747667239474	1
5917	64460	75.259439435614	4
5917	64822	75.560624744219	2
5917	64829	75.561897604899	2
5917	65073	75.762047676017	2
5917	65573	76.172563184348	4
5917	66547	77.072563184348	9
5917	66800	77.282442857056	1
5917	67033	77.488990639709	1
5917	67338	77.747348996047	8
5917	67396	77.778491312831	1
5917	67397	77.778491312831	3
5917	67545	77.890893659652	4
5917	68455	78.591993659652	8
5917	68702	78.791993659652	1
5917	69200	79.193772421319	3
5917	69897	79.797133976701	6
5917	70221	80.105881918936	2
5917	70735	80.514438102318	4
5917	71190	80.914438102318	3
5917	71847	81.42319095359	4
5917	72498	82.043916596111	2
5917	72579	82.127215847867	6
5917	72751	82.252208009077	1
5917	73127	82.535802449696	3
5917	73132	82.537869970431	3
5917	74299	83.339409858937	8
5917	75146	84.039409858937	6
5917	76685	85.247607743894	13
5917	76720	85.258749734311	4
5917	77079	85.547922276063	2
5917	77660	86.067391529284	8
5917	77773	86.155919403117	6
5917	78073	86.366593855911	2
5917	79231	87.357529414989	4
5917	79254	87.366593855911	9
5917	79427	87.562327147599	1
5917	79700	87.7706964043	2
5917	80094	88.1706964043	3
5917	80826	88.780370071738	6
5917	82422	90.180795720699	15
5917	82437	90.186983278616	15
5917	82702	90.390547001533	1
5917	82716	90.396648914654	1
5917	83610	91.098750268071	7
5917	83825	91.298750268071	1
5917	84127	91.603112040102	2
5917	84133	91.606612052504	2
5917	84354	91.80854088147	1
5917	84461	91.903561709577	2
5917	84733	92.117093846509	3
5917	84980	92.4090750543	4
5917	85012	92.413545948783	3
5917	85037	92.421805868341	2
5917	85304	92.625869302617	2
5917	86249	93.511491686966	7
5917	87184	94.211491686966	7
5917	87714	94.617537914853	3
5917	88030	94.838222766644	5
5917	88188	94.959030644407	5
5917	88381	95.138594643539	2
5917	88400	95.143523597973	2
5917	88527	95.244623597973	1
5917	89061	95.644623597973	4
5917	89079	95.645841870831	0
5917	89461	95.945841870831	2
5917	89733	96.149450603798	2
5917	90077	96.447614407273	5
5917	90508	96.848714407273	5
5917	91080	97.348714407273	4
5917	91413	97.653098880117	3
5917	91706	97.870196667165	4
5917	91990	98.074035610611	2
5917	92565	98.574035610611	4
5917	92821	98.776576888601	1
5917	93372	99.185992913141	3
5917	94135	99.773525198575	2
5917	94351	99.889027113252	11
5917	94773	100.197896425988	2
5917	94802	100.206981044865	11
5917	95539	100.812563258817	7
5917	95958	101.212563258817	3
5917	96894	102.016658932471	7
5917	97621	102.624242937393	8
5917	98267	103.124242937393	5
5917	99169	103.835438928663	4
5917	99300	103.925278471612	7
5917	100438	104.828844597023	10
5917	100812	105.128844597023	2
5917	101186	105.437960796658	2
5917	103293	107.060896510269	5
5917	103590	107.360896510269	2
5917	104300	107.924103409217	4
5917	105633	109.024103409217	10
5917	105859	109.228985594021	1
5917	106262	109.537711104187	2
5917	106841	110.047204340695	6
5917	108247	111.22657419102	8
5917	108276	111.247204340695	13
5917	108533	111.473274126777	6
5917	109102	111.881881651411	4
5917	109321	112.088060795779	1
5917	110225	112.895929948811	7
5917	110606	113.197029948811	3
5917	111166	113.597029948811	3
5917	112035	114.412494531449	8
5917	112288	114.618727380636	1
5917	112535	114.826344388849	1
5917	114550	116.430838208671	18
5917	114555	116.43634290896	7
5917	114720	116.566123592955	4
5917	115178	116.947128346376	2
5917	115219	116.974088966805	4
5917	115404	117.136371660883	6
5917	115406	117.138685598936	6
5917	115528	117.247608008109	2
5917	116292	118.053160122065	8
5917	116630	118.353160122065	2
5917	116877	118.554314496154	1
5917	116902	118.567926100066	3
5917	117736	119.178159363149	6
5917	119855	121.078159363149	20
5917	121097	122.091774750223	11
5917	121558	122.493722122133	3
5917	121924	122.803372248637	2
5917	123288	123.905626912661	11
5917	123575	124.130465111136	6
5917	123879	124.332593295364	1
5917	123996	124.429617975755	1
5917	124396	124.739966387578	3
5917	124710	124.939966387578	1
5917	125138	125.245671841333	2
5917	125583	125.625491600959	5
5917	125621	125.635969897819	0
5917	125856	125.835969897819	1
5917	126289	126.244602401522	4
5917	127010	126.75735839084	5
5917	128046	127.547500271431	14
5917	128089	127.558516362389	2
5917	128316	127.754337637511	2
5917	129339	128.559916101914	8
5917	129996	129.159916101914	6
5917	130297	129.379069591224	5
5917	130350	129.464420598709	2
5917	131452	130.266314114755	9
5917	132149	130.766314114755	4
5917	132931	131.375113276207	5
5917	133146	131.503622945608	3
5917	133269	131.595461718736	3
5917	133280	131.598279530398	6
5917	133884	132.099379530398	5
5917	134354	132.499379530398	3
5917	134680	132.803529300999	2
5917	135189	133.204401647229	3
5917	135660	133.605501647229	4
5917	136538	134.349714749535	3
5917	136719	134.505501647229	10
5918	215	20.201	0.75
5918	665	20.901	0.25
5918	782	21.110057421204	0.875
5918	1287	21.620501830764	0.5
5918	1398	21.722296873756	0.625
5918	1971	22.141840071677	0.625
5918	2105	22.251280861846	0.875
5918	2846	22.851280861846	0.25
5918	3087	23.052380861846	0.75
5918	3533	23.452380861846	0.625
5918	3991	23.861776739103	0.625
5918	4188	24.0481759181	0.625
5918	4525	24.3492759181	0.625
5918	5036	24.7492759181	0.5
5918	5374	25.04933644297	0.75
5918	5742	25.454669696764	0.625
5918	6468	26.158697294499	0.125
5918	6884	26.558697294499	0.625
5918	7347	26.968406609484	0.625
5918	7607	27.177559520756	0.875
5918	7893	27.378659520756	0.75
5918	8125	27.578659520756	0.875
5918	8423	27.786863136774	0.875
5918	8953	28.295442715599	0.5
5918	9250	28.596691764662	0.75
5918	9257	28.598001281512	0.75
5918	9755	28.999101281512	0.5
5918	10219	29.399101281512	0.625
5918	10364	29.506216134386	0.875
5918	10709	29.808223675934	0.625
5918	10949	30.011130332771	0.875
5918	11308	30.311916705399	0.75
5918	11443	30.417513492943	0.875
5918	11495	30.478986720634	0.375
5918	11703	30.588563621686	0.75
5918	12050	30.888563621686	0.75
5918	12698	31.394828257224	0.5
5918	12967	31.603463700537	0.875
5918	13126	31.704563700537	0.875
5918	13633	32.106227577893	0.625
5918	13846	32.307327577893	0.75
5918	14472	32.907327577893	0.25
5918	15033	33.42356266297	0.375
5918	15044	33.424732180815	0.5
5918	15504	33.825832180815	0.5
5918	16349	34.525832180815	0.25
5918	16600	34.727621760254	0.75
5918	16860	34.927621760254	0.875
5918	17001	35.050195593741	0.875
5918	17014	35.055793390253	0.875
5918	17511	35.536458915532	0.375
5918	18099	36.029061472567	0.875
5918	18526	36.329061472567	0.75
5918	18845	36.631494134338	0.75
5918	19549	37.164716702966	0.125
5918	20014	37.539737811355	-0.125
5918	20069	37.565936934036	0.625
5918	20275	37.749568336064	0.875
5918	20883	38.275828714026	0
5918	21036	38.457337818216	0.25
5918	21403	38.775801204856	-0.25
5918	21409	38.77806943857	0.5
5918	21898	39.17916943857	0.375
5918	22266	39.47916943857	0.75
5918	23295	40.280300045993	0.375
5918	23301	40.286858225802	0
5918	23510	40.472096927632	-0.125
5918	23927	40.873196927632	0.5
5918	24151	41.073196927632	0.875
5918	25179	41.880413901106	0.125
5918	25384	42.082411857411	0.875
5918	26165	42.783007742781	0.25
5918	26641	43.18361320123	0.625
5918	26783	43.287127994821	0.875
5918	28276	44.449694136852	0.625
5918	28467	44.651243768925	0.75
5918	29368	45.651243768925	-0.25
5918	29586	45.853224197974	0.875
5918	30224	46.413942540718	0.375
5918	30390	46.554204383055	0.125
5918	30456	46.62089448495	0.75
5918	30533	46.702141207307	0
5918	30799	46.920972558771	0.75
5918	30933	47.020653027502	0.375
5918	30943	47.024919676809	1
5918	31476	47.426223677587	0.5
5918	32246	48.126223677587	0.25
5918	33575	49.336077713638	-0.5
5918	34347	50.065452690117	0.625
5918	34519	50.249840317944	-0.375
5918	34782	50.470269218186	0.5
5918	35208	50.854647296057	0.375
5918	35510	51.081818112936	0
5918	35590	51.159697476145	0.75
5918	36535	51.867779989941	0.125
5918	37519	52.867779989941	-0.125
5918	37792	53.17388644163	0.75
5918	38158	53.485220289837	0.75
5918	38246	53.579901140281	0.75
5918	38889	54.090886101023	0.375
5918	39621	54.690886101023	0.375
5918	39891	54.900725251053	0.875
5918	40148	55.106911506811	0.75
5918	40429	55.306911506811	0.875
5918	41110	55.916059685002	0.25
5918	41438	56.218268146286	0.75
5918	41681	56.414314237028	0.75
5918	42000	56.725222788462	0.75
5918	42129	56.821239054928	0.375
5918	42210	56.905089629275	0.375
5918	42352	57.008421701404	0.875
5918	42745	57.308421701404	0.75
5918	42960	57.510645038363	0.875
5918	43574	57.913116442077	0.625
5918	43777	58.05143624796	0.75
5918	44366	58.488955183725	0.5
5918	45569	59.49095576214	-0.375
5918	45959	59.79095576214	0.75
5918	46192	59.966592345261	0.75
5918	46210	59.992906026897	0.875
5918	46458	60.175383488386	0.875
5918	46477	60.180879346086	1
5918	47052	60.688220946328	0.5
5918	47560	61.101287811941	0.625
5918	47652	61.16224434089	0.625
5918	48056	61.469922265666	0.75
5918	48068	61.505102636965	0.625
5918	48348	61.707614224037	0.75
5918	48571	61.907614224037	0.875
5918	49684	62.767938937536	0.375
5918	50230	63.237289022788	0.875
5918	50402	63.38201376181	0.875
5918	51023	63.884884306369	0.375
5918	51647	64.484884306369	0.375
5918	51893	64.691329483608	0.875
5918	51903	64.697552981346	0.875
5918	52906	65.500561446833	0
5918	52917	65.503995758406	0
5918	53209	65.710168076848	0.875
5918	53211	65.710304893032	0.875
5918	53632	66.080820625675	0.375
5918	53880	66.281920625675	0.75
5918	55399	67.586570876145	-0.625
5918	55553	67.690813753878	0.875
5918	56109	68.190813753878	0.5
5918	56384	68.396056432992	0.875
5918	56608	68.597156432992	0.75
5918	59157	70.593898525646	-1.25
5918	59789	71.093898525646	0.25
5918	60109	71.400607485743	0.75
5918	61403	72.513665804492	-0.125
5918	61665	72.721481566858	0.75
5918	62164	73.221481566858	0.5
5918	62961	74.026533420556	0.125
5918	63548	74.539016565947	0.5
5918	63865	74.747667239474	0.875
5918	64460	75.259439435614	0.5
5918	64822	75.560624744219	0.75
5918	64829	75.561897604899	0.75
5918	65073	75.762047676017	0.75
5918	65573	76.172563184348	0.5
5918	66547	77.072563184348	-0.125
5918	66800	77.282442857056	0.875
5918	67033	77.488990639709	0.875
5918	67338	77.747348996047	0
5918	67396	77.778491312831	0.875
5918	67397	77.778491312831	0.625
5918	67545	77.890893659652	0.5
5918	68455	78.591993659652	0
5918	68702	78.791993659652	0.875
5918	69200	79.193772421319	0.625
5918	69897	79.797133976701	0.25
5918	70221	80.105881918936	0.75
5918	70735	80.514438102318	0.5
5918	71190	80.914438102318	0.625
5918	71847	81.42319095359	0.5
5918	72498	82.043916596111	0.75
5918	72579	82.127215847867	0.25
5918	72751	82.252208009077	0.875
5918	73127	82.535802449696	0.625
5918	73132	82.537869970431	0.625
5918	74299	83.339409858937	0
5918	75146	84.039409858937	0.25
5918	76685	85.247607743894	-0.625
5918	76720	85.258749734311	0.5
5918	77079	85.547922276063	0.75
5918	77660	86.067391529284	0
5918	77773	86.155919403117	0.25
5918	78073	86.366593855911	0.75
5918	79231	87.357529414989	0.5
5918	79254	87.366593855911	-0.125
5918	79427	87.562327147599	0.875
5918	79700	87.7706964043	0.75
5918	80094	88.1706964043	0.625
5918	80826	88.780370071738	0.25
5918	82422	90.180795720699	-0.875
5918	82437	90.186983278616	-0.875
5918	82702	90.390547001533	0.875
5918	82716	90.396648914654	0.875
5918	83610	91.098750268071	0.125
5918	83825	91.298750268071	0.875
5918	84127	91.603112040102	0.75
5918	84133	91.606612052504	0.75
5918	84354	91.80854088147	0.875
5918	84461	91.903561709577	0.75
5918	84733	92.117093846509	0.625
5918	84980	92.4090750543	0.5
5918	85012	92.413545948783	0.625
5918	85037	92.421805868341	0.75
5918	85304	92.625869302617	0.75
5918	86249	93.511491686966	0.125
5918	87184	94.211491686966	0.125
5918	87714	94.617537914853	0.625
5918	88030	94.838222766644	0.375
5918	88188	94.959030644407	0.375
5918	88381	95.138594643539	0.75
5918	88400	95.143523597973	0.75
5918	88527	95.244623597973	0.875
5918	89061	95.644623597973	0.5
5918	89079	95.645841870831	1
5918	89461	95.945841870831	0.75
5918	89733	96.149450603798	0.75
5918	90077	96.447614407273	0.375
5918	90508	96.848714407273	0.375
5918	91080	97.348714407273	0.5
5918	91413	97.653098880117	0.625
5918	91706	97.870196667165	0.5
5918	91990	98.074035610611	0.75
5918	92565	98.574035610611	0.5
5918	92821	98.776576888601	0.875
5918	93372	99.185992913141	0.625
5918	94135	99.773525198575	0.75
5918	94351	99.889027113252	-0.375
5918	94773	100.197896425988	0.75
5918	94802	100.206981044865	-0.375
5918	95539	100.812563258817	0.125
5918	95958	101.212563258817	0.625
5918	96894	102.016658932471	0.125
5918	97621	102.624242937393	0
5918	98267	103.124242937393	0.375
5918	99169	103.835438928663	0.5
5918	99300	103.925278471612	0.125
5918	100438	104.828844597023	-0.25
5918	100812	105.128844597023	0.75
5918	101186	105.437960796658	0.75
5918	103293	107.060896510269	0.375
5918	103590	107.360896510269	0.75
5918	104300	107.924103409217	0.5
5918	105633	109.024103409217	-0.25
5918	105859	109.228985594021	0.875
5918	106262	109.537711104187	0.75
5918	106841	110.047204340695	0.25
5918	108247	111.22657419102	0
5918	108276	111.247204340695	-0.625
5918	108533	111.473274126777	0.25
5918	109102	111.881881651411	0.5
5918	109321	112.088060795779	0.875
5918	110225	112.895929948811	0.125
5918	110606	113.197029948811	0.625
5918	111166	113.597029948811	0.625
5918	112035	114.412494531449	0
5918	112288	114.618727380636	0.875
5918	112535	114.826344388849	0.875
5918	114550	116.430838208671	-1.25
5918	114555	116.43634290896	0.125
5918	114720	116.566123592955	0.5
5918	115178	116.947128346376	0.75
5918	115219	116.974088966805	0.5
5918	115404	117.136371660883	0.25
5918	115406	117.138685598936	0.25
5918	115528	117.247608008109	0.75
5918	116292	118.053160122065	0
5918	116630	118.353160122065	0.75
5918	116877	118.554314496154	0.875
5918	116902	118.567926100066	0.625
5918	117736	119.178159363149	0.25
5918	119855	121.078159363149	-1.5
5918	121097	122.091774750223	-0.375
5918	121558	122.493722122133	0.625
5918	121924	122.803372248637	0.75
5918	123288	123.905626912661	-0.375
5918	123575	124.130465111136	0.33333331346512
5918	123879	124.332593295364	0.875
5918	123996	124.429617975755	0.875
5918	124396	124.739966387578	0.625
5918	124710	124.939966387578	0.875
5918	125138	125.245671841333	0.75
5918	125583	125.625491600959	0.375
5918	125621	125.635969897819	1
5918	125856	125.835969897819	0.875
5918	126289	126.244602401522	0.5
5918	127010	126.75735839084	0.375
5918	128046	127.547500271431	-0.75
5918	128089	127.558516362389	0.75
5918	128316	127.754337637511	0.75
5918	129339	128.559916101914	0
5918	129996	129.159916101914	0.25
5918	130297	129.379069591224	0.375
5918	130350	129.464420598709	0.75
5918	131452	130.266314114755	-0.125
5918	132149	130.766314114755	0.5
5918	132931	131.375113276207	0.375
5918	133146	131.503622945608	0.625
5918	133269	131.595461718736	0.625
5918	133280	131.598279530398	0.25
5918	133884	132.099379530398	0.375
5918	134354	132.499379530398	0.625
5918	134680	132.803529300999	0.75
5918	135189	133.204401647229	0.625
5918	135660	133.605501647229	0.5
5918	136538	134.349714749535	0.625
5918	136719	134.505501647229	-0.25
5919	215	20.201	0.2
5919	665	20.901	0.7
5919	782	21.110057421204	0.2
5919	1287	21.620501830764	0.5
5919	1398	21.722296873756	0.4
5919	1971	22.141840071677	0.4
5919	2105	22.251280861846	0.1
5919	2846	22.851280861846	0.6
5919	3087	23.052380861846	0.2
5919	3533	23.452380861846	0.4
5919	3991	23.861776739103	0.4
5919	4188	24.0481759181	0.4
5919	4525	24.3492759181	0.3
5919	5036	24.7492759181	0.4
5919	5374	25.04933644297	0.3
5919	5742	25.454669696764	0.4
5919	6468	26.158697294499	0.7
5919	6884	26.558697294499	0.4
5919	7347	26.968406609484	0.4
5919	7607	27.177559520756	0.2
5919	7893	27.378659520756	0.2
5919	8125	27.578659520756	0.2
5919	8423	27.786863136774	0.2
5919	8953	28.295442715599	0.5
5919	9250	28.596691764662	0.3
5919	9257	28.598001281512	0.3
5919	9755	28.999101281512	0.4
5919	10219	29.399101281512	0.4
5919	10364	29.506216134386	0.1
5919	10709	29.808223675934	0.4
5919	10949	30.011130332771	0.2
5919	11308	30.311916705399	0.3
5919	11443	30.417513492943	0.2
5919	11495	30.478986720634	0.6
5919	11703	30.588563621686	0.1
5919	12050	30.888563621686	0.3
5919	12698	31.394828257224	0.5
5919	12967	31.603463700537	0.2
5919	13126	31.704563700537	0.1
5919	13633	32.106227577893	0.4
5919	13846	32.307327577893	0.2
5919	14472	32.907327577893	0.6
5919	15033	33.42356266297	0.5
5919	15044	33.424732180815	0.5
5919	15504	33.825832180815	0.4
5919	16349	34.525832180815	0.7
5919	16600	34.727621760254	0.2
5919	16860	34.927621760254	0.2
5919	17001	35.050195593741	0.2
5919	17014	35.055793390253	0.2
5919	17511	35.536458915532	0.6
5919	18099	36.029061472567	0.1
5919	18526	36.329061472567	0.3
5919	18845	36.631494134338	0.3
5919	19549	37.164716702966	0.7
5919	20014	37.539737811355	0.9
5919	20069	37.565936934036	0.4
5919	20275	37.749568336064	0.2
5919	20883	38.275828714026	0.7
5919	21036	38.457337818216	0.7
5919	21403	38.775801204856	1.1
5919	21409	38.77806943857	0.5
5919	21898	39.17916943857	0.4
5919	22266	39.47916943857	0.3
5919	23295	40.280300045993	0.6
5919	23301	40.286858225802	0.8
5919	23510	40.472096927632	0.9
5919	23927	40.873196927632	0.4
5919	24151	41.073196927632	0.2
5919	25179	41.880413901106	0.8
5919	25384	42.082411857411	0.2
5919	26165	42.783007742781	0.7
5919	26641	43.18361320123	0.4
5919	26783	43.287127994821	0.1
5919	28276	44.449694136852	0.4
5919	28467	44.651243768925	0.2
5919	29368	45.651243768925	1
5919	29586	45.853224197974	0.2
5919	30224	46.413942540718	0.6
5919	30390	46.554204383055	0.7
5919	30456	46.62089448495	0.3
5919	30533	46.702141207307	0.8
5919	30799	46.920972558771	0.3
5919	30933	47.020653027502	0.6
5919	30943	47.024919676809	0.1
5919	31476	47.426223677587	0.4
5919	32246	48.126223677587	0.7
5919	33575	49.336077713638	1.2
5919	34347	50.065452690117	0.4
5919	34519	50.249840317944	0.9
5919	34782	50.470269218186	0.4
5919	35208	50.854647296057	0.6
5919	35510	51.081818112936	0.6
5919	35590	51.159697476145	0.3
5919	36535	51.867779989941	0.7
5919	37519	52.867779989941	1
5919	37792	53.17388644163	0.3
5919	38158	53.485220289837	0.3
5919	38246	53.579901140281	0.3
5919	38889	54.090886101023	0.5
5919	39621	54.690886101023	0.6
5919	39891	54.900725251053	0.2
5919	40148	55.106911506811	0.2
5919	40429	55.306911506811	0.2
5919	41110	55.916059685002	0.6
5919	41438	56.218268146286	0.3
5919	41681	56.414314237028	0.3
5919	42000	56.725222788462	0.3
5919	42129	56.821239054928	0.6
5919	42210	56.905089629275	0.6
5919	42352	57.008421701404	0.1
5919	42745	57.308421701404	0.3
5919	42960	57.510645038363	0.2
5919	43574	57.913116442077	0.4
5919	43777	58.05143624796	0.3
5919	44366	58.488955183725	0.5
5919	45569	59.49095576214	1
5919	45959	59.79095576214	0.3
5919	46192	59.966592345261	0.2
5919	46210	59.992906026897	0.2
5919	46458	60.175383488386	0.2
5919	46477	60.180879346086	0
5919	47052	60.688220946328	0.5
5919	47560	61.101287811941	0.4
5919	47652	61.16224434089	0.4
5919	48056	61.469922265666	0.3
5919	48068	61.505102636965	0.4
5919	48348	61.707614224037	0.2
5919	48571	61.907614224037	0.2
5919	49684	62.767938937536	0.4
5919	50230	63.237289022788	0.2
5919	50402	63.38201376181	0.2
5919	51023	63.884884306369	0.5
5919	51647	64.484884306369	0.6
5919	51893	64.691329483608	0.2
5919	51903	64.697552981346	0.2
5919	52906	65.500561446833	0.8
5919	52917	65.503995758406	0.8
5919	53209	65.710168076848	0.2
5919	53211	65.710304893032	0.2