file 1016474 1369933138                                         
version 2
run Stability-85-20130528-00:55:51-21385
attr configname Stability
attr datetime 20130528-00:55:51
attr experiment Stability
attr inifile omnetpp.ini
attr iterationvars $0=1e-2
attr iterationvars2 "$0=1e-2, $repetition=5"
attr measurement $0=1e-2
attr network Network
attr processid 21385
attr repetition 5
attr replication #5
attr resultdir results
attr runnumber 85
attr seedset 85
vector 8341  Network.churner  inGoingSizeSig:vector  ETV
8341	892377 124097 22 137063 20 135.155599891328 4097 0 31 125742 3880846
vector 8284  Network.dyn_peer[13]  lookupHopsSig:vector  ETV
8284	362253 8797 68 136875 20.00014 134.420411936973 300 0 17 1262 7898
vector 8285  Network.dyn_peer[13]  lookupStabilitySig:vector  ETV
8285	371050 9763 68 136875 20.00014 134.420411936973 300 -1.125 1 142.25 107.90625
vector 8286  Network.dyn_peer[13]  lookupTimeSig:vector  ETV
8286	380813 9361 68 136875 20.00014 134.420411936973 300 0 1.6 140.4 86.7
vector 8302  Network.dyn_peer[19]  lookupHopsSig:vector  ETV
8302	528388 8953 90 136120 20.0002 133.51180412937 305 0 18 1253 7715
vector 8303  Network.dyn_peer[19]  lookupStabilitySig:vector  ETV
8303	537341 9953 90 136120 20.0002 133.51180412937 305 -1.25 1 148.43055554479 112.37519288652
vector 8304  Network.dyn_peer[19]  lookupTimeSig:vector  ETV
8304	547294 9525 90 136120 20.0002 133.51180412937 305 0 1.8 141.1 85.89
vector 8326  Network.dyn_peer[27]  lookupHopsSig:vector  ETV
8326	756508 8560 118 136377 20.00028 133.801063333493 291 0 17 1275 8551
vector 8327  Network.dyn_peer[27]  lookupStabilitySig:vector  ETV
8327	765068 9566 118 136377 20.00028 133.801063333493 291 -1.125 1 131.76388886571 105.99286263592
vector 8328  Network.dyn_peer[27]  lookupTimeSig:vector  ETV
8328	774634 9107 118 136377 20.00028 133.801063333493 291 0 1.7 141.4 92.4
vector 8335  Network.dyn_peer[30]  lookupHopsSig:vector  ETV
8335	838380 8667 131 136381 20.00031 133.804558789918 294 0 23 1275 8637
vector 8336  Network.dyn_peer[30]  lookupStabilitySig:vector  ETV
8336	847047 9676 131 136381 20.00031 133.804558789918 294 -1.875 1 134.76388886571 110.34317127753
vector 8337  Network.dyn_peer[30]  lookupTimeSig:vector  ETV
8337	856723 9209 131 136381 20.00031 133.804558789918 294 0 2.1 142.5 94.11
vector 8248  Network.dyn_peer[1]  lookupHopsSig:vector  ETV
8248	34866 9115 141 136793 20.10002 134.321888855794 311 0 16 1215 7429
vector 8249  Network.dyn_peer[1]  lookupStabilitySig:vector  ETV
8249	43981 10131 141 136793 20.10002 134.321888855794 311 -1 1 159.23611107469 123.43885027185
vector 8250  Network.dyn_peer[1]  lookupTimeSig:vector  ETV
8250	54112 9697 141 136793 20.10002 134.321888855794 311 0 1.4 137.2 80.56
vector 8266  Network.dyn_peer[7]  lookupHopsSig:vector  ETV
8266	197952 8704 151 136441 20.10008 133.840327401944 296 0 26 1217 8091
vector 8267  Network.dyn_peer[7]  lookupStabilitySig:vector  ETV
8267	206656 9720 151 136441 20.10008 133.840327401944 296 -2.25 1 143.95833332837 118.27295524066
vector 8268  Network.dyn_peer[7]  lookupTimeSig:vector  ETV
8268	216376 9256 151 136441 20.10008 133.840327401944 296 0 2.5 137.1 89.41
vector 8269  Network.dyn_peer[8]  lookupHopsSig:vector  ETV
8269	225632 8575 156 136770 20.10009 134.295738425307 293 0 17 1212 7484
vector 8270  Network.dyn_peer[8]  lookupStabilitySig:vector  ETV
8270	234207 9601 156 136770 20.10009 134.295738425307 293 -1.125 1 141.56944444031 107.02064042695
vector 8271  Network.dyn_peer[8]  lookupTimeSig:vector  ETV
8271	243808 9137 156 136770 20.10009 134.295738425307 293 0 1.6 135.9 82.95
vector 8272  Network.dyn_peer[9]  lookupHopsSig:vector  ETV
8272	252945 7983 161 136796 20.1001 134.322782828651 271 0 23 1185 8645
vector 8273  Network.dyn_peer[9]  lookupStabilitySig:vector  ETV
8273	260928 8874 161 136796 20.1001 134.322782828651 271 -1.875 1 122.875 109.828125
vector 8274  Network.dyn_peer[9]  lookupTimeSig:vector  ETV
8274	269802 8488 161 136796 20.1001 134.322782828651 271 0 2.1 131 89.62
vector 8275  Network.dyn_peer[10]  lookupHopsSig:vector  ETV
8275	278290 9183 166 137061 20.10011 135.148934413136 313 0 21 1307 8487
vector 8276  Network.dyn_peer[10]  lookupStabilitySig:vector  ETV
8276	287473 10195 166 137061 20.10011 135.148934413136 313 -1.625 1 149.65277777612 118.90181326903
vector 8277  Network.dyn_peer[10]  lookupTimeSig:vector  ETV
8277	297668 9760 166 137061 20.10011 135.148934413136 313 0 2 145.7 93.91
vector 8278  Network.dyn_peer[11]  lookupHopsSig:vector  ETV
8278	307428 8620 171 136544 20.10012 133.978350458896 293 0 15 1198 7576
vector 8279  Network.dyn_peer[11]  lookupStabilitySig:vector  ETV
8279	316048 9618 171 136544 20.10012 133.978350458896 293 -0.875 1 143.4444444105 111.98186726335
vector 8280  Network.dyn_peer[11]  lookupTimeSig:vector  ETV
8280	325666 9174 171 136544 20.10012 133.978350458896 293 0 1.4 135.3 85.07
vector 8290  Network.dyn_peer[15]  lookupHopsSig:vector  ETV
8290	419328 8329 178 136625 20.10016 134.082076922641 284 0 17 1192 7660
vector 8291  Network.dyn_peer[15]  lookupStabilitySig:vector  ETV
8291	427657 9305 178 136625 20.10016 134.082076922641 284 -1.125 1 135.06944443285 105.78375770023
vector 8292  Network.dyn_peer[15]  lookupTimeSig:vector  ETV
8292	436962 8851 178 136625 20.10016 134.082076922641 284 0 1.7 131.9 84.31
vector 8293  Network.dyn_peer[16]  lookupHopsSig:vector  ETV
8293	445813 8655 183 135656 20.10017 133.105389134896 294 0 19 1238 7988
vector 8294  Network.dyn_peer[16]  lookupStabilitySig:vector  ETV
8294	454468 9615 183 135656 20.10017 133.105389134896 294 -1.375 1 139.69444438815 109.14544753381
vector 8295  Network.dyn_peer[16]  lookupTimeSig:vector  ETV
8295	464083 9215 183 135656 20.10017 133.105389134896 294 0 1.8 138.5 87.97
vector 8299  Network.dyn_peer[18]  lookupHopsSig:vector  ETV
8299	501844 8369 189 137015 20.10019 134.790266236287 284 0 19 1319 9381
vector 8300  Network.dyn_peer[18]  lookupStabilitySig:vector  ETV
8300	510213 9287 189 137015 20.10019 134.790266236287 284 -1.375 1 119.26388886571 100.91570214136
vector 8301  Network.dyn_peer[18]  lookupTimeSig:vector  ETV
8301	519500 8888 189 137015 20.10019 134.790266236287 284 0 1.8 143.1 98.25
vector 8308  Network.dyn_peer[21]  lookupHopsSig:vector  ETV
8308	584218 9278 196 136241 20.10022 133.614319625488 316 0 20 1196 7098
vector 8309  Network.dyn_peer[21]  lookupStabilitySig:vector  ETV
8309	593496 10339 196 136241 20.10022 133.614319625488 316 -1.5 1 166.5 127.90625
vector 8310  Network.dyn_peer[21]  lookupTimeSig:vector  ETV
8310	603835 9884 196 136241 20.10022 133.614319625488 316 0 1.7 135.3 77.95
vector 8317  Network.dyn_peer[24]  lookupHopsSig:vector  ETV
8317	675270 8481 203 136296 20.10025 133.692528766287 289 0 18 1197 7459
vector 8318  Network.dyn_peer[24]  lookupStabilitySig:vector  ETV
8318	683751 9446 203 136296 20.10025 133.692528766287 289 -1.25 1 139.40277777612 106.33931326903
vector 8319  Network.dyn_peer[24]  lookupTimeSig:vector  ETV
8319	693197 9022 203 136296 20.10025 133.692528766287 289 0 1.5 135.6 84.2
vector 8329  Network.dyn_peer[28]  lookupHopsSig:vector  ETV
8329	783741 8642 211 136561 20.10029 134.002389191233 294 0 17 1187 7509
vector 8330  Network.dyn_peer[28]  lookupStabilitySig:vector  ETV
8330	792383 9585 211 136561 20.10029 134.002389191233 294 -1.125 1 145.625 114.578125
vector 8331  Network.dyn_peer[28]  lookupTimeSig:vector  ETV
8331	801968 9188 211 136561 20.10029 134.002389191233 294 0 1.6 132.8 83.52
vector 8332  Network.dyn_peer[29]  lookupHopsSig:vector  ETV
8332	811156 8574 216 136641 20.1003 134.093398622867 292 0 17 1226 7860
vector 8333  Network.dyn_peer[29]  lookupStabilitySig:vector  ETV
8333	819730 9525 216 136641 20.1003 134.093398622867 292 -1.125 1 138.83333331347 108.36111109787
vector 8334  Network.dyn_peer[29]  lookupTimeSig:vector  ETV
8334	829255 9125 216 136641 20.1003 134.093398622867 292 0 1.5 138.1 87.57
vector 8254  Network.dyn_peer[3]  lookupHopsSig:vector  ETV
8254	89781 9319 229 136858 20.20004 134.409357790452 317 0 21 1247 7681
vector 8255  Network.dyn_peer[3]  lookupStabilitySig:vector  ETV
8255	99100 10399 229 136858 20.20004 134.409357790452 317 -1.625 1 161.40277776867 125.34895829691
vector 8256  Network.dyn_peer[3]  lookupTimeSig:vector  ETV
8256	109499 9904 229 136858 20.20004 134.409357790452 317 0 1.8 140.4 84
vector 8305  Network.dyn_peer[20]  lookupHopsSig:vector  ETV
8305	556819 8603 248 135812 20.20021 133.217961911203 294 1 20 1235 7715
vector 8306  Network.dyn_peer[20]  lookupStabilitySig:vector  ETV
8306	565422 9640 248 135812 20.20021 133.217961911203 294 -1.5 0.88888888806105 139.73611109704 105.96662806618
vector 8307  Network.dyn_peer[20]  lookupTimeSig:vector  ETV
8307	575062 9156 248 135812 20.20021 133.217961911203 294 0.1 1.8 137.4 84.28
vector 8245  Network.dyn_peer[0]  lookupHopsSig:vector  ETV
8245	6438 8962 267 137026 20.30001 134.808098487254 305 0 19 1386 9806
vector 8246  Network.dyn_peer[0]  lookupStabilitySig:vector  ETV
8246	15400 9937 267 137026 20.30001 134.808098487254 305 -1.375 1 131.75 111.71875
vector 8247  Network.dyn_peer[0]  lookupTimeSig:vector  ETV
8247	25337 9529 267 137026 20.30001 134.808098487254 305 0 1.9 154.4 107.52
vector 8311  Network.dyn_peer[22]  lookupHopsSig:vector  ETV
8311	613719 9656 293 136835 20.30023 134.342970804457 329 0 13 1264 7142
vector 8312  Network.dyn_peer[22]  lookupStabilitySig:vector  ETV
8312	623375 10745 293 136835 20.30023 134.342970804457 329 -0.625 1 171.04166665673 124.6475694312
vector 8313  Network.dyn_peer[22]  lookupTimeSig:vector  ETV
8313	634120 10282 293 136835 20.30023 134.342970804457 329 0 1.2 142.5 79.79
vector 8314  Network.dyn_peer[23]  lookupHopsSig:vector  ETV
8314	644402 9700 298 135814 20.30024 133.218076932551 331 0 18 1239 7305
vector 8315  Network.dyn_peer[23]  lookupStabilitySig:vector  ETV
8315	654102 10832 298 135814 20.30024 133.218076932551 331 -1.25 1 176.18055555224 135.44926697163
vector 8316  Network.dyn_peer[23]  lookupTimeSig:vector  ETV
8316	664934 10336 298 135814 20.30024 133.218076932551 331 0 1.7 139.5 80.17
vector 8323  Network.dyn_peer[26]  lookupHopsSig:vector  ETV
8323	728089 8948 307 136190 20.30027 133.592528766287 304 0 24 1233 8681
vector 8324  Network.dyn_peer[26]  lookupStabilitySig:vector  ETV
8324	737037 9958 307 136190 20.30027 133.592528766287 304 -2 1 149.95833331347 131.43923609787
vector 8325  Network.dyn_peer[26]  lookupTimeSig:vector  ETV
8325	746995 9513 307 136190 20.30027 133.592528766287 304 0 2.2 137.1 90.47
vector 8338  Network.dyn_peer[31]  lookupHopsSig:vector  ETV
8338	865932 8342 316 136955 20.30032 134.618924052434 283 0 17 1246 8298
vector 8339  Network.dyn_peer[31]  lookupStabilitySig:vector  ETV
8339	874274 9231 316 136955 20.30032 134.618924052434 283 -1.125 1 127.25 101.15625
vector 8340  Network.dyn_peer[31]  lookupTimeSig:vector  ETV
8340	883505 8872 316 136955 20.30032 134.618924052434 283 0 1.7 138 89.92
vector 8257  Network.dyn_peer[4]  lookupHopsSig:vector  ETV
8257	119403 8033 338 136812 20.40005 134.330954988091 273 0 23 1210 8990
vector 8258  Network.dyn_peer[4]  lookupStabilitySig:vector  ETV
8258	127436 8927 338 136812 20.40005 134.330954988091 273 -1.875 1 121.81944441795 111.02565584065
vector 8259  Network.dyn_peer[4]  lookupTimeSig:vector  ETV
8259	136363 8526 338 136812 20.40005 134.330954988091 273 0 2.1 132.8 91.6
vector 8260  Network.dyn_peer[5]  lookupHopsSig:vector  ETV
8260	144889 8702 343 136992 20.40006 134.718924052434 296 0 19 1334 9026
vector 8261  Network.dyn_peer[5]  lookupStabilitySig:vector  ETV
8261	153591 9665 343 136992 20.40006 134.718924052434 296 -1.375 1 129.33333331347 103.6388888624
vector 8262  Network.dyn_peer[5]  lookupTimeSig:vector  ETV
8262	163256 9239 343 136992 20.40006 134.718924052434 296 0 1.8 146.1 96.89
vector 8281  Network.dyn_peer[12]  lookupHopsSig:vector  ETV
8281	334840 8647 352 136456 20.40013 133.880902714883 294 0 17 1258 8252
vector 8282  Network.dyn_peer[12]  lookupStabilitySig:vector  ETV
8282	343487 9565 352 136456 20.40013 133.880902714883 294 -1.125 1 136.75 108.4375
vector 8283  Network.dyn_peer[12]  lookupTimeSig:vector  ETV
8283	353052 9201 352 136456 20.40013 133.880902714883 294 0 1.5 140 89.56
vector 8287  Network.dyn_peer[14]  lookupHopsSig:vector  ETV
8287	390174 9183 357 135786 20.40015 133.21170412937 312 0 27 1332 9312
vector 8288  Network.dyn_peer[14]  lookupStabilitySig:vector  ETV
8288	399357 10203 357 135786 20.40015 133.21170412937 312 -2.375 1 145.58333330601 124.58140429597
vector 8289  Network.dyn_peer[14]  lookupTimeSig:vector  ETV
8289	409560 9768 357 135786 20.40015 133.21170412937 312 0 2.6 149.3 101.55
vector 8251  Network.dyn_peer[2]  lookupHopsSig:vector  ETV
8251	63809 8178 389 135973 20.50003 133.371856947907 278 0 19 1214 8324
vector 8252  Network.dyn_peer[2]  lookupStabilitySig:vector  ETV
8252	71987 9107 389 135973 20.50003 133.371856947907 278 -1.375 1 126.34722220898 104.59625771016
vector 8253  Network.dyn_peer[2]  lookupTimeSig:vector  ETV
8253	81094 8687 389 135973 20.50003 133.371856947907 278 0 1.7 133.5 87.85
vector 8263  Network.dyn_peer[6]  lookupHopsSig:vector  ETV
8263	172495 8021 397 136479 20.50007 133.905591091881 273 0 15 1271 8667
vector 8264  Network.dyn_peer[6]  lookupStabilitySig:vector  ETV
8264	180516 8922 397 136479 20.50007 133.905591091881 273 -0.875 1 114.38055557013 90.578155823961
vector 8265  Network.dyn_peer[6]  lookupTimeSig:vector  ETV
8265	189438 8514 397 136479 20.50007 133.905591091881 273 0 1.3 140.1 93.45
vector 8320  Network.dyn_peer[25]  lookupHopsSig:vector  ETV
8320	702219 8158 417 136142 20.50026 133.523590885826 277 0 22 1235 8657
vector 8321  Network.dyn_peer[25]  lookupStabilitySig:vector  ETV
8321	710377 9054 417 136142 20.50026 133.523590885826 277 -1.75 1 122.625 103.515625
vector 8322  Network.dyn_peer[25]  lookupTimeSig:vector  ETV
8322	719431 8658 417 136142 20.50026 133.523590885826 277 0 2 135.4 91.18
vector 8296  Network.dyn_peer[17]  lookupHopsSig:vector  ETV
8296	473298 8968 472 135910 20.60018 133.309787610894 305 0 17 1316 8486
vector 8297  Network.dyn_peer[17]  lookupStabilitySig:vector  ETV
8297	482266 10030 472 135910 20.60018 133.309787610894 305 -1.125 1 140.875 108.65181321274
vector 8298  Network.dyn_peer[17]  lookupTimeSig:vector  ETV
8298	492296 9548 472 135910 20.60018 133.309787610894 305 0 1.5 144.9 91.03
