file 1066620 1369933135                                         
version 2
run Stability-119-20130528-00:58:25-21385
attr configname Stability
attr datetime 20130528-00:58:25
attr experiment Stability
attr inifile omnetpp.ini
attr iterationvars $0=1e-5
attr iterationvars2 "$0=1e-5, $repetition=9"
attr measurement $0=1e-5
attr network Network
attr processid 21385
attr repetition 9
attr replication #9
attr resultdir results
attr runnumber 119
attr seedset 119
vector 11639  Network.churner  inGoingSizeSig:vector  ETV
11639	938313 128307 21 138967 20 135.910930660826 4097 0 31 125763 3882115
vector 11552  Network.dyn_peer[3]  lookupHopsSig:vector  ETV
11552	94442 9118 37 138238 20.00000004 134.753804678809 300 0 18 1165 7173
vector 11553  Network.dyn_peer[3]  lookupStabilitySig:vector  ETV
11553	103560 10111 37 138238 20.00000004 134.753804678809 300 -1.25 1 154.375 120.828125
vector 11554  Network.dyn_peer[3]  lookupTimeSig:vector  ETV
11554	113671 9692 37 138238 20.00000004 134.753804678809 300 0 1.7 132.3 79.69
vector 11561  Network.dyn_peer[6]  lookupHopsSig:vector  ETV
11561	177031 9769 50 137679 20.00000007 134.329913407834 321 0 21 1352 8936
vector 11562  Network.dyn_peer[6]  lookupStabilitySig:vector  ETV
11562	186800 10832 50 137679 20.00000007 134.329913407834 321 -1.625 1 152.11111110449 122.63734567754
vector 11563  Network.dyn_peer[6]  lookupTimeSig:vector  ETV
11563	197632 10375 50 137679 20.00000007 134.329913407834 321 0 2.1 151.7 99.25
vector 11636  Network.dyn_peer[31]  lookupHopsSig:vector  ETV
11636	908608 9370 129 137564 20.00000032 134.239763560473 308 0 15 1275 8115
vector 11637  Network.dyn_peer[31]  lookupStabilitySig:vector  ETV
11637	917978 10391 129 137564 20.00000032 134.239763560473 308 -0.875 1 148.69444441795 116.10378084065
vector 11638  Network.dyn_peer[31]  lookupTimeSig:vector  ETV
11638	928369 9944 129 137564 20.00000032 134.239763560473 308 0 1.5 144.1 90.71
vector 11543  Network.dyn_peer[0]  lookupHopsSig:vector  ETV
11543	6538 8553 135 137874 20.10000001 134.459638847372 281 0 24 1224 8800
vector 11544  Network.dyn_peer[0]  lookupStabilitySig:vector  ETV
11544	15091 9523 135 137874 20.10000001 134.459638847372 281 -2 1 128.19444440305 112.71180551251
vector 11545  Network.dyn_peer[0]  lookupTimeSig:vector  ETV
11545	24614 9066 135 137874 20.10000001 134.459638847372 281 0 2.1 135 92.04
vector 11546  Network.dyn_peer[1]  lookupHopsSig:vector  ETV
11546	33680 10061 140 138448 20.10000002 134.951215456961 331 0 17 1306 8042
vector 11547  Network.dyn_peer[1]  lookupStabilitySig:vector  ETV
11547	43741 11157 140 138448 20.10000002 134.951215456961 331 -1.125 1 167.75 130.15625
vector 11548  Network.dyn_peer[1]  lookupTimeSig:vector  ETV
11548	54898 10682 140 138448 20.10000002 134.951215456961 331 0 1.7 148.4 91.14
vector 11564  Network.dyn_peer[7]  lookupHopsSig:vector  ETV
11564	208007 9703 149 137917 20.10000008 134.490893069295 319 0 22 1311 8793
vector 11565  Network.dyn_peer[7]  lookupStabilitySig:vector  ETV
11565	217710 10741 149 137917 20.10000008 134.490893069295 319 -1.75 1 155.18055555224 128.69926697163
vector 11566  Network.dyn_peer[7]  lookupTimeSig:vector  ETV
11566	228451 10306 149 137917 20.10000008 134.490893069295 319 0 1.9 147.2 95.16
vector 11567  Network.dyn_peer[8]  lookupHopsSig:vector  ETV
11567	238757 8530 154 138395 20.10000009 134.890398402968 280 1 19 1280 8748
vector 11568  Network.dyn_peer[8]  lookupStabilitySig:vector  ETV
11568	247287 9471 154 138395 20.10000009 134.890398402968 280 -1.375 0.875 120.09722220898 96.721257710163
vector 11569  Network.dyn_peer[8]  lookupTimeSig:vector  ETV
11569	256758 9064 154 138395 20.10000009 134.890398402968 280 0.1 1.8 141 93.16
vector 11570  Network.dyn_peer[9]  lookupHopsSig:vector  ETV
11570	265822 9154 159 138623 20.1000001 135.140617248914 301 0 19 1243 8045
vector 11571  Network.dyn_peer[9]  lookupStabilitySig:vector  ETV
11571	274976 10149 159 138623 20.1000001 135.140617248914 301 -1.375 1 145.66666665673 116.0069444312
vector 11572  Network.dyn_peer[9]  lookupTimeSig:vector  ETV
11572	285125 9718 159 138623 20.1000001 135.140617248914 301 0 1.9 137.7 86.47
vector 11579  Network.dyn_peer[12]  lookupHopsSig:vector  ETV
11579	351063 9014 166 138455 20.10000013 134.958500075156 296 0 26 1313 9863
vector 11580  Network.dyn_peer[12]  lookupStabilitySig:vector  ETV
11580	360077 9979 166 138455 20.10000013 134.958500075156 296 -2.25 1 132.02777776122 121.95177468179
vector 11581  Network.dyn_peer[12]  lookupTimeSig:vector  ETV
11581	370056 9559 166 138455 20.10000013 134.958500075156 296 0 2.3 144.7 104.49
vector 11582  Network.dyn_peer[13]  lookupHopsSig:vector  ETV
11582	379615 9510 171 138585 20.10000014 135.096620883382 312 0 17 1234 7342
vector 11583  Network.dyn_peer[13]  lookupStabilitySig:vector  ETV
11583	389125 10558 171 138585 20.10000014 135.096620883382 312 -1.125 1 157.86111108214 118.342592565
vector 11584  Network.dyn_peer[13]  lookupTimeSig:vector  ETV
11584	399683 10106 171 138585 20.10000014 135.096620883382 312 0 1.7 139.9 83.43
vector 11585  Network.dyn_peer[14]  lookupHopsSig:vector  ETV
11585	409789 9510 176 138046 20.10000015 134.590893069295 312 0 20 1292 8344
vector 11586  Network.dyn_peer[14]  lookupStabilitySig:vector  ETV
11586	419299 10552 176 138046 20.10000015 134.590893069295 312 -1.5 1 150.58333331347 119.42361109787
vector 11587  Network.dyn_peer[14]  lookupTimeSig:vector  ETV
11587	429851 10090 176 138046 20.10000015 134.590893069295 312 0 1.7 144.6 89.76
vector 11591  Network.dyn_peer[16]  lookupHopsSig:vector  ETV
11591	470290 10115 182 138868 20.10000017 135.553373507715 333 0 17 1336 7922
vector 11592  Network.dyn_peer[16]  lookupStabilitySig:vector  ETV
11592	480405 11178 182 138868 20.10000017 135.553373507715 333 -1.125 1 166 122.78125
vector 11593  Network.dyn_peer[16]  lookupTimeSig:vector  ETV
11593	491583 10755 182 138868 20.10000017 135.553373507715 333 0 1.6 152.4 90.82
vector 11603  Network.dyn_peer[20]  lookupHopsSig:vector  ETV
11603	589560 8625 190 137674 20.10000021 134.328207785176 284 1 15 1265 8359
vector 11604  Network.dyn_peer[20]  lookupStabilitySig:vector  ETV
11604	598185 9601 190 137674 20.10000021 134.328207785176 284 -0.875 0.875 125.9999999702 98.474922812279
vector 11605  Network.dyn_peer[20]  lookupTimeSig:vector  ETV
11605	607786 9165 190 137674 20.10000021 134.328207785176 284 0.1 1.4 139.4 90.34
vector 11609  Network.dyn_peer[22]  lookupHopsSig:vector  ETV
11609	648133 10271 196 138922 20.10000023 135.700259759445 337 0 19 1406 8790
vector 11610  Network.dyn_peer[22]  lookupStabilitySig:vector  ETV
11610	658404 11411 196 138922 20.10000023 135.700259759445 337 -1.375 1 161.43055554479 122.93923610449
vector 11611  Network.dyn_peer[22]  lookupTimeSig:vector  ETV
11611	669815 10900 196 138922 20.10000023 135.700259759445 337 0 1.7 156.9 96.21
vector 11612  Network.dyn_peer[23]  lookupHopsSig:vector  ETV
11612	680715 8878 201 138603 20.10000024 135.134934737673 292 0 24 1242 8366
vector 11613  Network.dyn_peer[23]  lookupStabilitySig:vector  ETV
11613	689593 9844 201 138603 20.10000024 135.134934737673 292 -2 1 136.75 112.21875
vector 11614  Network.dyn_peer[23]  lookupTimeSig:vector  ETV
11614	699437 9424 201 138603 20.10000024 135.134934737673 292 0 2.3 139.7 92.51
vector 11615  Network.dyn_peer[24]  lookupHopsSig:vector  ETV
11615	708861 9453 206 138695 20.10000025 135.196620883382 313 0 14 1181 6811
vector 11616  Network.dyn_peer[24]  lookupStabilitySig:vector  ETV
11616	718314 10526 206 138695 20.10000025 135.196620883382 313 -0.75 1 165.54166664183 124.32156633852
vector 11617  Network.dyn_peer[24]  lookupTimeSig:vector  ETV
11617	728840 10050 206 138695 20.10000025 135.196620883382 313 0 1.4 134.3 77.51
vector 11555  Network.dyn_peer[4]  lookupHopsSig:vector  ETV
11555	123363 8401 223 137454 20.20000005 134.162061439211 276 0 27 1294 10058
vector 11556  Network.dyn_peer[4]  lookupStabilitySig:vector  ETV
11556	131764 9322 223 137454 20.20000005 134.162061439211 276 -2.375 1 114.25 109.65625
vector 11557  Network.dyn_peer[4]  lookupTimeSig:vector  ETV
11557	141086 8912 223 137454 20.20000005 134.162061439211 276 0 2.7 141.6 105.46
vector 11573  Network.dyn_peer[10]  lookupHopsSig:vector  ETV
11573	294843 8513 232 138378 20.20000011 134.877455201431 280 0 19 1250 8528
vector 11574  Network.dyn_peer[10]  lookupStabilitySig:vector  ETV
11574	303356 9451 232 138378 20.20000011 134.877455201431 280 -1.375 1 123.80555555224 100.80864197163
vector 11575  Network.dyn_peer[10]  lookupTimeSig:vector  ETV
11575	312807 9041 232 138378 20.20000011 134.877455201431 280 0 1.9 140.3 95.35
vector 11576  Network.dyn_peer[11]  lookupHopsSig:vector  ETV
11576	321848 9225 237 138187 20.20000012 134.734512973005 304 0 17 1235 8157
vector 11577  Network.dyn_peer[11]  lookupStabilitySig:vector  ETV
11577	331073 10189 237 138187 20.20000012 134.734512973005 304 -1.125 1 149.625 122.703125
vector 11578  Network.dyn_peer[11]  lookupTimeSig:vector  ETV
11578	341262 9801 237 138187 20.20000012 134.734512973005 304 0 1.5 139.1 88.13
vector 11594  Network.dyn_peer[17]  lookupHopsSig:vector  ETV
11594	502338 8959 247 138844 20.20000018 135.482843993945 294 0 25 1251 8527
vector 11595  Network.dyn_peer[17]  lookupStabilitySig:vector  ETV
11595	511297 9944 247 138844 20.20000018 135.482843993945 294 -2.125 1 137.66666665673 114.5381944312
vector 11596  Network.dyn_peer[17]  lookupTimeSig:vector  ETV
11596	521241 9511 247 138844 20.20000018 135.482843993945 294 0 2.1 138.6 89.6
vector 11597  Network.dyn_peer[18]  lookupHopsSig:vector  ETV
11597	530752 9087 252 138003 20.20000019 134.562161439211 298 0 19 1282 8350
vector 11598  Network.dyn_peer[18]  lookupStabilitySig:vector  ETV
11598	539839 10036 252 138003 20.20000019 134.562161439211 298 -1.375 1 137.90277779102 107.87750771016
vector 11599  Network.dyn_peer[18]  lookupTimeSig:vector  ETV
11599	549875 9638 252 138003 20.20000019 134.562161439211 298 0 1.8 142.3 91.41
vector 11624  Network.dyn_peer[27]  lookupHopsSig:vector  ETV
11624	797203 8596 265 138936 20.20000028 135.756530427469 283 0 18 1227 8549
vector 11625  Network.dyn_peer[27]  lookupStabilitySig:vector  ETV
11625	805799 9523 265 138936 20.20000028 135.756530427469 283 -1.25 1 129.625 109.828125
vector 11626  Network.dyn_peer[27]  lookupTimeSig:vector  ETV
11626	815322 9125 265 138936 20.20000028 135.756530427469 283 0 1.7 136.4 91.68
vector 11600  Network.dyn_peer[19]  lookupHopsSig:vector  ETV
11600	559513 9482 295 137410 20.3000002 134.143821644455 311 0 17 1247 7487
vector 11601  Network.dyn_peer[19]  lookupStabilitySig:vector  ETV
11601	568995 10496 295 137410 20.3000002 134.143821644455 311 -1.125 1 155.125 116.234375
vector 11602  Network.dyn_peer[19]  lookupTimeSig:vector  ETV
11602	579491 10069 295 137410 20.3000002 134.143821644455 311 0 1.7 139.8 82.66
vector 11621  Network.dyn_peer[26]  lookupHopsSig:vector  ETV
11621	770364 8464 307 138963 20.30000027 135.901484437567 279 0 17 1185 7521
vector 11622  Network.dyn_peer[26]  lookupStabilitySig:vector  ETV
11622	778828 9396 307 138963 20.30000027 135.901484437567 279 -1.125 1 130.95833331347 100.31423609787
vector 11623  Network.dyn_peer[26]  lookupTimeSig:vector  ETV
11623	788224 8979 307 138963 20.30000027 135.901484437567 279 0 1.5 132.3 82.23
vector 11630  Network.dyn_peer[29]  lookupHopsSig:vector  ETV
11630	852604 8775 314 138275 20.3000003 134.784747055808 288 0 19 1281 8915
vector 11631  Network.dyn_peer[29]  lookupStabilitySig:vector  ETV
11631	861379 9751 314 138275 20.3000003 134.784747055808 288 -1.375 1 127.90277777612 107.08931326903
vector 11632  Network.dyn_peer[29]  lookupTimeSig:vector  ETV
11632	871130 9302 314 138275 20.3000003 134.784747055808 288 0 1.7 140.6 93.34
vector 11549  Network.dyn_peer[2]  lookupHopsSig:vector  ETV
11549	65580 9112 333 137541 20.40000003 134.232322538011 300 0 20 1332 8836
vector 11550  Network.dyn_peer[2]  lookupStabilitySig:vector  ETV
11550	74692 10079 333 137541 20.40000003 134.232322538011 300 -1.5 1 133.61111110449 105.07484567754
vector 11551  Network.dyn_peer[2]  lookupTimeSig:vector  ETV
11551	84771 9671 333 137541 20.40000003 134.232322538011 300 0 1.9 149.2 98.74
vector 11618  Network.dyn_peer[25]  lookupHopsSig:vector  ETV
11618	738890 9927 361 137768 20.40000026 134.377355201431 326 0 15 1325 8225
vector 11619  Network.dyn_peer[25]  lookupStabilitySig:vector  ETV
11619	748817 10999 361 137768 20.40000026 134.377355201431 326 -0.875 1 160.6249999702 123.39178239195
vector 11620  Network.dyn_peer[25]  lookupTimeSig:vector  ETV
11620	759816 10548 361 137768 20.40000026 134.377355201431 326 0 1.5 148.2 88.64
vector 11627  Network.dyn_peer[28]  lookupHopsSig:vector  ETV
11627	824447 8874 368 138791 20.40000029 135.340817248914 292 0 19 1280 8754
vector 11628  Network.dyn_peer[28]  lookupStabilitySig:vector  ETV
11628	833321 9861 368 138791 20.40000029 135.340817248914 292 -1.375 1 132.08333331347 108.82986109787
vector 11629  Network.dyn_peer[28]  lookupTimeSig:vector  ETV
11629	843182 9422 368 138791 20.40000029 135.340817248914 292 0 1.6 141.6 92.04
vector 11633  Network.dyn_peer[30]  lookupHopsSig:vector  ETV
11633	880432 8882 374 138103 20.40000031 134.647970868202 292 0 22 1220 7796
vector 11634  Network.dyn_peer[30]  lookupStabilitySig:vector  ETV
11634	889314 9862 374 138103 20.40000031 134.647970868202 292 -1.75 1 139.56944443285 108.90875770023
vector 11635  Network.dyn_peer[30]  lookupTimeSig:vector  ETV
11635	899176 9432 374 138103 20.40000031 134.647970868202 292 0.1 2 136.2 84.92
vector 11558  Network.dyn_peer[5]  lookupHopsSig:vector  ETV
11558	149998 8519 398 137501 20.50000006 134.18942695314 280 0 20 1241 8195
vector 11559  Network.dyn_peer[5]  lookupStabilitySig:vector  ETV
11559	158517 9465 398 137501 20.50000006 134.18942695314 280 -1.5 1 124.9999999851 97.951774671858
vector 11560  Network.dyn_peer[5]  lookupTimeSig:vector  ETV
11560	167982 9049 398 137501 20.50000006 134.18942695314 280 0 1.9 137.5 88.85
vector 11606  Network.dyn_peer[21]  lookupHopsSig:vector  ETV
11606	616951 9840 456 138320 20.60000022 134.83497934025 323 0 18 1258 7672
vector 11607  Network.dyn_peer[21]  lookupStabilitySig:vector  ETV
11607	626791 10891 456 138320 20.60000022 134.83497934025 323 -1.25 1 165.79166665673 128.4288194312
vector 11608  Network.dyn_peer[21]  lookupTimeSig:vector  ETV
11608	637682 10451 456 138320 20.60000022 134.83497934025 323 0 1.7 142.1 84.95
vector 11588  Network.dyn_peer[15]  lookupHopsSig:vector  ETV
11588	439941 9571 526 138888 20.70000016 135.596720883382 315 0 20 1329 9019
vector 11589  Network.dyn_peer[15]  lookupStabilitySig:vector  ETV
11589	449512 10619 526 138888 20.70000016 135.596720883382 315 -1.5 1 148.91666665673 123.7256944312
vector 11590  Network.dyn_peer[15]  lookupTimeSig:vector  ETV
11590	460131 10159 526 138888 20.70000016 135.596720883382 315 0 1.9 148.6 98.86
