version 2
run Stability-142-20130528-01:00:08-21385
attr configname Stability
attr datetime 20130528-01:00:08
attr experiment Stability
attr inifile omnetpp.ini
attr iterationvars $0=1e-8
attr iterationvars2 "$0=1e-8, $repetition=2"
attr measurement $0=1e-8
attr network Network
attr processid 21385
attr repetition 2
attr replication #2
attr resultdir results
attr runnumber 142
attr seedset 142

vector 13870  Network.churner  inGoingSizeSig:vector  ETV
vector 13783  Network.dyn_peer[3]  lookupHopsSig:vector  ETV
vector 13784  Network.dyn_peer[3]  lookupStabilitySig:vector  ETV
vector 13785  Network.dyn_peer[3]  lookupTimeSig:vector  ETV
vector 13822  Network.dyn_peer[16]  lookupHopsSig:vector  ETV
vector 13823  Network.dyn_peer[16]  lookupStabilitySig:vector  ETV
vector 13824  Network.dyn_peer[16]  lookupTimeSig:vector  ETV
vector 13852  Network.dyn_peer[26]  lookupHopsSig:vector  ETV
vector 13853  Network.dyn_peer[26]  lookupStabilitySig:vector  ETV
vector 13854  Network.dyn_peer[26]  lookupTimeSig:vector  ETV
vector 13774  Network.dyn_peer[0]  lookupHopsSig:vector  ETV
vector 13775  Network.dyn_peer[0]  lookupStabilitySig:vector  ETV
vector 13776  Network.dyn_peer[0]  lookupTimeSig:vector  ETV
vector 13792  Network.dyn_peer[6]  lookupHopsSig:vector  ETV
vector 13793  Network.dyn_peer[6]  lookupStabilitySig:vector  ETV
vector 13794  Network.dyn_peer[6]  lookupTimeSig:vector  ETV
vector 13795  Network.dyn_peer[7]  lookupHopsSig:vector  ETV
vector 13796  Network.dyn_peer[7]  lookupStabilitySig:vector  ETV
vector 13797  Network.dyn_peer[7]  lookupTimeSig:vector  ETV
vector 13801  Network.dyn_peer[9]  lookupHopsSig:vector  ETV
vector 13802  Network.dyn_peer[9]  lookupStabilitySig:vector  ETV
vector 13803  Network.dyn_peer[9]  lookupTimeSig:vector  ETV
vector 13804  Network.dyn_peer[10]  lookupHopsSig:vector  ETV
vector 13805  Network.dyn_peer[10]  lookupStabilitySig:vector  ETV
vector 13806  Network.dyn_peer[10]  lookupTimeSig:vector  ETV
vector 13810  Network.dyn_peer[12]  lookupHopsSig:vector  ETV
vector 13811  Network.dyn_peer[12]  lookupStabilitySig:vector  ETV
vector 13812  Network.dyn_peer[12]  lookupTimeSig:vector  ETV
vector 13813  Network.dyn_peer[13]  lookupHopsSig:vector  ETV
vector 13814  Network.dyn_peer[13]  lookupStabilitySig:vector  ETV
vector 13815  Network.dyn_peer[13]  lookupTimeSig:vector  ETV
vector 13840  Network.dyn_peer[22]  lookupHopsSig:vector  ETV
vector 13841  Network.dyn_peer[22]  lookupStabilitySig:vector  ETV
vector 13842  Network.dyn_peer[22]  lookupTimeSig:vector  ETV
vector 13843  Network.dyn_peer[23]  lookupHopsSig:vector  ETV
vector 13844  Network.dyn_peer[23]  lookupStabilitySig:vector  ETV
vector 13845  Network.dyn_peer[23]  lookupTimeSig:vector  ETV
vector 13855  Network.dyn_peer[27]  lookupHopsSig:vector  ETV
vector 13856  Network.dyn_peer[27]  lookupStabilitySig:vector  ETV
vector 13857  Network.dyn_peer[27]  lookupTimeSig:vector  ETV
vector 13780  Network.dyn_peer[2]  lookupHopsSig:vector  ETV
vector 13781  Network.dyn_peer[2]  lookupStabilitySig:vector  ETV
vector 13782  Network.dyn_peer[2]  lookupTimeSig:vector  ETV
vector 13816  Network.dyn_peer[14]  lookupHopsSig:vector  ETV
vector 13817  Network.dyn_peer[14]  lookupStabilitySig:vector  ETV
vector 13818  Network.dyn_peer[14]  lookupTimeSig:vector  ETV
vector 13819  Network.dyn_peer[15]  lookupHopsSig:vector  ETV
vector 13820  Network.dyn_peer[15]  lookupStabilitySig:vector  ETV
vector 13821  Network.dyn_peer[15]  lookupTimeSig:vector  ETV
vector 13825  Network.dyn_peer[17]  lookupHopsSig:vector  ETV
vector 13826  Network.dyn_peer[17]  lookupStabilitySig:vector  ETV
vector 13827  Network.dyn_peer[17]  lookupTimeSig:vector  ETV
vector 13831  Network.dyn_peer[19]  lookupHopsSig:vector  ETV
vector 13832  Network.dyn_peer[19]  lookupStabilitySig:vector  ETV
vector 13833  Network.dyn_peer[19]  lookupTimeSig:vector  ETV
vector 13837  Network.dyn_peer[21]  lookupHopsSig:vector  ETV
vector 13838  Network.dyn_peer[21]  lookupStabilitySig:vector  ETV
vector 13839  Network.dyn_peer[21]  lookupTimeSig:vector  ETV
vector 13846  Network.dyn_peer[24]  lookupHopsSig:vector  ETV
vector 13847  Network.dyn_peer[24]  lookupStabilitySig:vector  ETV
vector 13848  Network.dyn_peer[24]  lookupTimeSig:vector  ETV
vector 13867  Network.dyn_peer[31]  lookupHopsSig:vector  ETV
vector 13868  Network.dyn_peer[31]  lookupStabilitySig:vector  ETV
vector 13869  Network.dyn_peer[31]  lookupTimeSig:vector  ETV
vector 13777  Network.dyn_peer[1]  lookupHopsSig:vector  ETV
vector 13778  Network.dyn_peer[1]  lookupStabilitySig:vector  ETV
vector 13779  Network.dyn_peer[1]  lookupTimeSig:vector  ETV
vector 13786  Network.dyn_peer[4]  lookupHopsSig:vector  ETV
vector 13787  Network.dyn_peer[4]  lookupStabilitySig:vector  ETV
vector 13788  Network.dyn_peer[4]  lookupTimeSig:vector  ETV
vector 13789  Network.dyn_peer[5]  lookupHopsSig:vector  ETV
vector 13790  Network.dyn_peer[5]  lookupStabilitySig:vector  ETV
vector 13791  Network.dyn_peer[5]  lookupTimeSig:vector  ETV
vector 13807  Network.dyn_peer[11]  lookupHopsSig:vector  ETV
vector 13808  Network.dyn_peer[11]  lookupStabilitySig:vector  ETV
vector 13809  Network.dyn_peer[11]  lookupTimeSig:vector  ETV
vector 13828  Network.dyn_peer[18]  lookupHopsSig:vector  ETV
vector 13829  Network.dyn_peer[18]  lookupStabilitySig:vector  ETV
vector 13830  Network.dyn_peer[18]  lookupTimeSig:vector  ETV
vector 13861  Network.dyn_peer[29]  lookupHopsSig:vector  ETV
vector 13862  Network.dyn_peer[29]  lookupStabilitySig:vector  ETV
vector 13863  Network.dyn_peer[29]  lookupTimeSig:vector  ETV
vector 13798  Network.dyn_peer[8]  lookupHopsSig:vector  ETV
vector 13799  Network.dyn_peer[8]  lookupStabilitySig:vector  ETV
vector 13800  Network.dyn_peer[8]  lookupTimeSig:vector  ETV
vector 13849  Network.dyn_peer[25]  lookupHopsSig:vector  ETV
vector 13850  Network.dyn_peer[25]  lookupStabilitySig:vector  ETV
vector 13851  Network.dyn_peer[25]  lookupTimeSig:vector  ETV
vector 13858  Network.dyn_peer[28]  lookupHopsSig:vector  ETV
vector 13859  Network.dyn_peer[28]  lookupStabilitySig:vector  ETV
vector 13860  Network.dyn_peer[28]  lookupTimeSig:vector  ETV
vector 13864  Network.dyn_peer[30]  lookupHopsSig:vector  ETV
vector 13865  Network.dyn_peer[30]  lookupStabilitySig:vector  ETV
vector 13866  Network.dyn_peer[30]  lookupTimeSig:vector  ETV
vector 13834  Network.dyn_peer[20]  lookupHopsSig:vector  ETV
vector 13835  Network.dyn_peer[20]  lookupStabilitySig:vector  ETV
vector 13836  Network.dyn_peer[20]  lookupTimeSig:vector  ETV
13774	136	20.10000000001	1
13774	505	20.70000000001	5
13774	761	21.002395143735	2
13774	1124	21.311067775115	2
13774	1279	21.504639093175	2
13774	2115	22.110511149657	6
13774	2872	22.710511149657	6
13774	3147	22.921568213693	2
13774	3410	23.136189479814	1
13774	3753	23.437297796103	6
13774	4517	24.041304475438	7
13774	5576	25.041304475438	10
13774	6614	25.940310968309	4
13774	6847	26.051480353379	7
13774	6887	26.05921784257	0
13774	8324	27.254951208213	9
13774	9281	28.154951208213	8
13774	9501	28.457368416113	2
13774	9793	28.761890334275	4
13774	10107	29.061890334275	2
13774	10377	29.270211670265	1
13774	10816	29.671405416526	4
13774	11074	29.871405416526	1
13774	11751	30.474609904658	5
13774	12131	30.782102241484	4
13774	12985	31.582102241484	7
13774	13466	31.990686848224	3
13774	13849	32.354769473266	7
13774	14074	32.593947452213	5
13774	14101	32.604851399033	5
13774	14285	32.763636949338	3
13774	14316	32.812578215905	1
13774	14560	33.014069466086	1
13774	14668	33.115046093587	1
13774	14754	33.166482224497	3
13774	14908	33.316187959467	2
13774	14922	33.323081325925	1
13774	14943	33.347753562018	1
13774	14994	33.400857479324	8
13774	15405	33.709277994678	4
13774	15686	33.909277994678	2
13774	15956	34.112758718572	2
13774	16583	34.612758718572	4
13774	17055	35.012858718582	4
13774	17990	35.7354134002	3
13774	18507	36.212858718582	12
13774	18753	36.415939399562	2
13774	19211	36.815939399562	3
13774	19815	37.241809036258	2
13774	19994	37.350287757585	1
13774	20402	37.665017549543	2
13774	21037	38.176875760613	5
13774	21560	38.581334104687	5
13774	22523	39.381334104687	7
13774	23015	39.787967981323	3
13774	23074	39.798053513979	0
13774	23617	40.298053513979	5
13774	24379	40.898619389345	7
13774	25825	42.198619389345	12
13774	26417	42.708151207305	4
13774	27003	43.117682701309	3
13774	27244	43.327008085035	1
13774	27634	43.690795601576	6
13774	27718	43.736305878191	3
13774	28062	44.000463607928	3
13774	28072	44.004589031719	4
13774	28505	44.305580269797	3
13774	28784	44.505580269797	1
13774	29166	44.810996251041	2
13774	29603	45.224499952494	3
13774	30002	45.529516635608	3
13774	30329	45.850075198905	2
13774	30471	45.95444405393	0
13774	30545	46.029177260645	0
13774	30712	46.156353124694	1
13774	31190	46.581246170859	3
13774	31205	46.610755627873	2
13774	31463	46.810982219442	1
13774	33104	47.917614814996	13
13774	33514	48.217614814996	2
13774	33631	48.319027954555	2
13774	34357	49.024695177426	8
13774	34716	49.424695177426	3
13774	35180	49.829717904956	3
13774	35543	50.137344229966	2
13774	35554	50.140261998272	1
13774	35918	50.44473522302	9
13774	37817	52.154170188445	18
13774	38390	52.654170188445	4
13774	38718	52.96046348043	2
13774	38989	53.248402058613	3
13774	39015	53.262607654128	2
13774	39386	53.5645697559	4
13774	40584	54.6645697559	10
13774	42127	55.965697131776	14
13774	42451	56.273573819987	2
13774	42650	56.47435470329	1
13774	42781	56.579628219939	1
13774	43406	57.104878109793	1
13774	43961	57.593888330993	3
13774	44793	58.193888330993	7
13774	45697	58.793988331003	7
13774	46312	59.293988331003	4
13774	46830	59.703778181426	3
13774	47105	59.899755930263	4
13774	47246	60.006828206694	2
13774	47625	60.314219077577	3
13774	48278	60.744092447826	0
13774	48641	61.044092447826	2
13774	49036	61.349177932791	2
13774	49500	61.832174582545	6
13774	50643	62.739469702873	9
13774	51219	63.239469702873	5
13774	51239	63.251734768105	4
13774	52004	63.855194173114	5
13774	52097	63.942060643931	6
13774	52611	64.442160643941	5
13774	53291	65.042160643941	6
13774	53508	65.248027075247	1
13774	54075	65.754638072508	4
13774	54464	66.058527461872	3
13774	54485	66.075409631003	3
13774	55378	66.778811980186	7
13774	55951	67.178811980186	3
13774	56438	67.678986127162	4
13774	56867	68.179715539977	5
13774	57258	68.479815539987	3
13774	57990	69.179815539987	6
13774	58118	69.282173808987	3
13774	58999	69.993907807863	4
13774	60105	70.898273292117	9
13774	60426	71.198273292117	3
13774	60927	71.605817443894	4
13774	61023	71.741824947927	4
13774	61439	72.147463930007	4
13774	61862	72.55153391292	3
13774	62125	72.754131211726	2
13774	63333	73.854131211726	10
13774	63773	74.257135497686	5
13774	64490	74.868928162457	5
13774	65029	75.284600740734	4
13774	65405	75.593809722866	2
13774	65574	75.75479552653	5
13774	66137	76.260495225308	6
13774	66582	76.760495225308	4
13774	66754	76.861266331894	0
13774	66788	76.910884233629	0
13774	67502	77.614747806158	6
13774	67780	77.824152291612	2
13774	68257	78.224152291612	3
13774	68539	78.52460606214	2
13774	69443	79.187077537694	8
13774	69706	79.434462494355	9
13774	69918	79.591510104374	3
13774	69938	79.595334348835	0
13774	70625	80.163284613036	1
13774	70641	80.163384613046	0
13774	71193	80.663478764489	4
13774	71204	80.67178307787	2
13774	71551	80.972972537449	4
13774	71923	81.372972537449	3
13774	72409	81.779825843109	3
13774	72772	82.088242384637	2
13774	73167	82.496450573771	3
13774	73372	82.704586340926	1
13774	73932	83.206964162249	4
13774	74732	83.811065353075	5
13774	74998	84.013843485304	1
13774	75408	84.316281491752	3
13774	76525	85.416281491752	10
13774	77345	86.061900739996	5
13774	77600	86.261900739996	1
13774	78010	86.572504808154	2
13774	78306	86.772935238327	1
13774	78408	86.86425735523	1
13774	78707	87.066419205344	1
13774	79128	87.36934810203	4
13774	80425	88.56934810203	12
13774	80744	88.774252368553	1
13774	81303	89.179731337105	3
13774	81364	89.241868303987	3
13774	82272	90.043159303256	8
13774	82925	90.643159303256	5
13774	83293	90.951213900163	2
13774	83583	91.159855142973	1
13774	83810	91.368204673765	1
13774	84412	91.969083079539	6
13774	85164	92.569083079539	6
13774	85473	92.775794094494	1
13774	86659	93.569290480023	10
13774	86830	93.700416000718	2
13774	87019	93.873471265123	2
13774	87264	94.077674007562	2
13774	87841	94.578263531212	4
13774	87996	94.683373309987	1
13774	88584	95.219713038797	4
13774	89778	96.163661042405	1
13774	90319	96.570225850986	5
13774	91124	97.270225850986	6
13774	92204	98.176614666888	8
13774	92336	98.280010783835	1
13774	92723	98.583953810201	3
13774	92994	98.89732338838	2
13774	93470	99.402940216268	4
13774	94697	100.603067616597	13
13774	94941	100.804698807693	2
13774	96091	101.909535157604	10
13774	96589	102.315756956297	4
13774	97713	103.215756956297	8
13774	99146	104.417227820113	12
13774	99407	104.618519907029	1
13774	99426	104.625846074553	3
13774	99899	105.028340795723	4
13774	100637	105.80416935254	2
13774	100799	105.920386348218	2
13774	100828	105.929549256	0
13774	101054	106.129549256	1
13774	102985	107.540343632355	11
13774	103283	107.740343632355	1
13774	103782	108.143512240905	3
13774	104054	108.352915273041	1
13774	104424	108.653912685118	3
13774	104931	109.053912685118	3
13774	105099	109.154012685128	1
13774	105877	109.728259972834	2
13774	106837	110.528259972834	7
13774	107666	111.13418834808	7
13774	108209	111.53418834808	3
13774	109428	112.336335208075	8
13774	109837	112.64497328949	2
13774	110090	112.85533220798	1
13774	110820	113.456668000412	6
13774	110837	113.462731035577	3
13774	111347	113.917898107546	8
13774	111484	114.019533505985	1
13774	111722	114.219533505985	1
13774	111988	114.423896503774	1
13774	112387	114.725988599629	2
13774	112405	114.742765746724	2
13774	113038	115.245281711865	5
13774	113676	115.845281711865	5
13774	113930	116.045381711875	2
13774	114585	116.580511796417	3
13774	115090	116.989696553956	4
13774	115806	117.689696553956	6
13774	116154	117.995739125696	2
13774	117819	119.446814078329	9
13774	117848	119.499119646996	16
13774	118017	119.606830514266	0
13774	118313	119.816534294962	1
13774	118361	119.855254435442	4
13774	118544	120.008199899345	5
13774	118882	120.323715633112	5
13774	118901	120.332013504878	2
13774	119524	120.83526606676	5
13774	119952	121.23526606676	3
13774	120283	121.538347779988	3
13774	120613	121.84578954655	2
13774	121105	122.269602093848	3
13774	121253	122.425318472866	11
13774	121478	122.57855586369	2
13774	122457	123.38460254098	8
13774	122684	123.58460254098	1
13774	123485	124.293993338639	6
13774	123738	124.500394670894	1
13774	124443	125.169891038624	3
13774	125376	125.95577967121	5
13774	125419	125.975544450144	8
13774	125782	126.282128613261	2
13774	126177	126.582502941962	2
13774	126227	126.602743444978	22
13774	126512	126.863593149694	10
13774	126569	126.884617003856	3
13774	126758	127.06906119634	5
13774	126943	127.172383218509	1
13774	128151	128.172383218509	10
13774	128289	128.212856332925	3
13774	128664	128.523073285519	2
13774	128811	128.624735082655	1
13774	129518	129.195968599335	3
13774	130977	130.495968599335	16
13774	131340	130.808823906783	3
13774	131862	131.306007768892	6
13774	131914	131.315439241536	4
13774	131995	131.404581313837	8
13774	132147	131.509915873921	1
13774	132884	132.118887898269	5
13774	133405	132.543722092387	3
13774	133408	132.548961244328	4
13774	133654	132.755156006725	2
13774	134014	133.055156006725	2
13774	134647	133.555856946008	5
13774	135000	133.86555042189	2
13774	135495	134.274943232081	4
13774	135555	134.341078017961	8
13774	135977	134.647866569124	4
13774	136216	134.847866569124	1
13774	137129	135.657838686064	6
13774	137533	136.058357804398	3
13774	137800	136.367386271433	2
13774	137883	136.466072917169	2
13774	137979	136.574565850054	1
13774	138121	136.776186021784	2
13775	136	20.10000000001	0.875
13775	505	20.70000000001	0.375
13775	761	21.002395143735	0.75
13775	1124	21.311067775115	0.75
13775	1279	21.504639093175	0.75
13775	2115	22.110511149657	0.25
13775	2872	22.710511149657	0.25
13775	3147	22.921568213693	0.75
13775	3410	23.136189479814	0.875
13775	3753	23.437297796103	0.25
13775	4517	24.041304475438	0.125
13775	5576	25.041304475438	-0.25
13775	6614	25.940310968309	0.5
13775	6847	26.051480353379	0.125
13775	6887	26.05921784257	1
13775	8324	27.254951208213	-0.125
13775	9281	28.154951208213	0
13775	9501	28.457368416113	0.75
13775	9793	28.761890334275	0.5
13775	10107	29.061890334275	0.75
13775	10377	29.270211670265	0.875
13775	10816	29.671405416526	0.5
13775	11074	29.871405416526	0.875
13775	11751	30.474609904658	0.375
13775	12131	30.782102241484	0.5
13775	12985	31.582102241484	0.125
13775	13466	31.990686848224	0.625
13775	13849	32.354769473266	0.125
13775	14074	32.593947452213	0.375
13775	14101	32.604851399033	0.375
13775	14285	32.763636949338	0.625
13775	14316	32.812578215905	0.875
13775	14560	33.014069466086	0.875
13775	14668	33.115046093587	0.875
13775	14754	33.166482224497	0.625
13775	14908	33.316187959467	0.75
13775	14922	33.323081325925	0.875
13775	14943	33.347753562018	0.875
13775	14994	33.400857479324	0
13775	15405	33.709277994678	0.5
13775	15686	33.909277994678	0.75
13775	15956	34.112758718572	0.75
13775	16583	34.612758718572	0.5
13775	17055	35.012858718582	0.5
13775	17990	35.7354134002	0.625
13775	18507	36.212858718582	-0.5
13775	18753	36.415939399562	0.75
13775	19211	36.815939399562	0.625
13775	19815	37.241809036258	0.75
13775	19994	37.350287757585	0.875
13775	20402	37.665017549543	0.75
13775	21037	38.176875760613	0.375
13775	21560	38.581334104687	0.375
13775	22523	39.381334104687	0.125
13775	23015	39.787967981323	0.625
13775	23074	39.798053513979	1
13775	23617	40.298053513979	0.375
13775	24379	40.898619389345	0.125
13775	25825	42.198619389345	-0.5
13775	26417	42.708151207305	0.5
13775	27003	43.117682701309	0.625
13775	27244	43.327008085035	0.875
13775	27634	43.690795601576	0.25
13775	27718	43.736305878191	0.625
13775	28062	44.000463607928	0.625
13775	28072	44.004589031719	0.5
13775	28505	44.305580269797	0.625
13775	28784	44.505580269797	0.875
13775	29166	44.810996251041	0.75
13775	29603	45.224499952494	0.625
13775	30002	45.529516635608	0.625
13775	30329	45.850075198905	0.75
13775	30471	45.95444405393	1
13775	30545	46.029177260645	1
13775	30712	46.156353124694	0.875
13775	31190	46.581246170859	0.625
13775	31205	46.610755627873	0.75
13775	31463	46.810982219442	0.875
13775	33104	47.917614814996	-0.625
13775	33514	48.217614814996	0.75
13775	33631	48.319027954555	0.75
13775	34357	49.024695177426	0
13775	34716	49.424695177426	0.625
13775	35180	49.829717904956	0.625
13775	35543	50.137344229966	0.75
13775	35554	50.140261998272	0.875
13775	35918	50.44473522302	-0.125
13775	37817	52.154170188445	-1.25
13775	38390	52.654170188445	0.5
13775	38718	52.96046348043	0.75
13775	38989	53.248402058613	0.625
13775	39015	53.262607654128	0.75
13775	39386	53.5645697559	0.5
13775	40584	54.6645697559	-0.25
13775	42127	55.965697131776	-0.75
13775	42451	56.273573819987	0.75
13775	42650	56.47435470329	0.875
13775	42781	56.579628219939	0.875
13775	43406	57.104878109793	0.875
13775	43961	57.593888330993	0.625
13775	44793	58.193888330993	0.125
13775	45697	58.793988331003	0.125
13775	46312	59.293988331003	0.5
13775	46830	59.703778181426	0.625
13775	47105	59.899755930263	0.5
13775	47246	60.006828206694	0.75
13775	47625	60.314219077577	0.625
13775	48278	60.744092447826	1
13775	48641	61.044092447826	0.75
13775	49036	61.349177932791	0.75
13775	49500	61.832174582545	0.25
13775	50643	62.739469702873	-0.125
13775	51219	63.239469702873	0.375
13775	51239	63.251734768105	0.5
13775	52004	63.855194173114	0.375
13775	52097	63.942060643931	0.25
13775	52611	64.442160643941	0.375
13775	53291	65.042160643941	0.25
13775	53508	65.248027075247	0.875
13775	54075	65.754638072508	0.5
13775	54464	66.058527461872	0.625
13775	54485	66.075409631003	0.625
13775	55378	66.778811980186	0.125
13775	55951	67.178811980186	0.625
13775	56438	67.678986127162	0.5
13775	56867	68.179715539977	0.375
13775	57258	68.479815539987	0.625
13775	57990	69.179815539987	0.25
13775	58118	69.282173808987	0.625
13775	58999	69.993907807863	0.5
13775	60105	70.898273292117	-0.125
13775	60426	71.198273292117	0.625
13775	60927	71.605817443894	0.5
13775	61023	71.741824947927	0.5
13775	61439	72.147463930007	0.5
13775	61862	72.55153391292	0.625
13775	62125	72.754131211726	0.75
13775	63333	73.854131211726	-0.25
13775	63773	74.257135497686	0.375
13775	64490	74.868928162457	0.375
13775	65029	75.284600740734	0.5
13775	65405	75.593809722866	0.75
13775	65574	75.75479552653	0.375
13775	66137	76.260495225308	0.25
13775	66582	76.760495225308	0.55555555224419
13775	66754	76.861266331894	1
13775	66788	76.910884233629	1
13775	67502	77.614747806158	0.25
13775	67780	77.824152291612	0.75
13775	68257	78.224152291612	0.625
13775	68539	78.52460606214	0.75
13775	69443	79.187077537694	0
13775	69706	79.434462494355	-0.125
13775	69918	79.591510104374	0.625
13775	69938	79.595334348835	1
13775	70625	80.163284613036	0.875
13775	70641	80.163384613046	1
13775	71193	80.663478764489	0.5
13775	71204	80.67178307787	0.75
13775	71551	80.972972537449	0.5
13775	71923	81.372972537449	0.625
13775	72409	81.779825843109	0.625
13775	72772	82.088242384637	0.75
13775	73167	82.496450573771	0.625
13775	73372	82.704586340926	0.875
13775	73932	83.206964162249	0.5
13775	74732	83.811065353075	0.375
13775	74998	84.013843485304	0.875
13775	75408	84.316281491752	0.625
13775	76525	85.416281491752	-0.25
13775	77345	86.061900739996	0.375
13775	77600	86.261900739996	0.875
13775	78010	86.572504808154	0.75
13775	78306	86.772935238327	0.875
13775	78408	86.86425735523	0.875
13775	78707	87.066419205344	0.875
13775	79128	87.36934810203	0.5
13775	80425	88.56934810203	-0.5
13775	80744	88.774252368553	0.875
13775	81303	89.179731337105	0.625
13775	81364	89.241868303987	0.625
13775	82272	90.043159303256	0
13775	82925	90.643159303256	0.375
13775	83293	90.951213900163	0.75
13775	83583	91.159855142973	0.875
13775	83810	91.368204673765	0.875
13775	84412	91.969083079539	0.25
13775	85164	92.569083079539	0.25
13775	85473	92.775794094494	0.875
13775	86659	93.569290480023	-0.25
13775	86830	93.700416000718	0.75
13775	87019	93.873471265123	0.75
13775	87264	94.077674007562	0.75
13775	87841	94.578263531212	0.5
13775	87996	94.683373309987	0.875
13775	88584	95.219713038797	0.5
13775	89778	96.163661042405	0.875
13775	90319	96.570225850986	0.375
13775	91124	97.270225850986	0.25
13775	92204	98.176614666888	0
13775	92336	98.280010783835	0.875
13775	92723	98.583953810201	0.625
13775	92994	98.89732338838	0.75
13775	93470	99.402940216268	0.5
13775	94697	100.603067616597	-0.625
13775	94941	100.804698807693	0.75
13775	96091	101.909535157604	-0.25
13775	96589	102.315756956297	0.5
13775	97713	103.215756956297	0
13775	99146	104.417227820113	-0.5
13775	99407	104.618519907029	0.875
13775	99426	104.625846074553	0.625
13775	99899	105.028340795723	0.5
13775	100637	105.80416935254	0.75
13775	100799	105.920386348218	0.75
13775	100828	105.929549256	1
13775	101054	106.129549256	0.875
13775	102985	107.540343632355	-0.375
13775	103283	107.740343632355	0.875
13775	103782	108.143512240905	0.625
13775	104054	108.352915273041	0.875
13775	104424	108.653912685118	0.625
13775	104931	109.053912685118	0.625
13775	105099	109.154012685128	0.875
13775	105877	109.728259972834	0.75
13775	106837	110.528259972834	0.125
13775	107666	111.13418834808	0.125
13775	108209	111.53418834808	0.625
13775	109428	112.336335208075	0
13775	109837	112.64497328949	0.75
13775	110090	112.85533220798	0.875
13775	110820	113.456668000412	0.25
13775	110837	113.462731035577	0.625
13775	111347	113.917898107546	0
13775	111484	114.019533505985	0.875
13775	111722	114.219533505985	0.875
13775	111988	114.423896503774	0.875
13775	112387	114.725988599629	0.75
13775	112405	114.742765746724	0.75
13775	113038	115.245281711865	0.375
13775	113676	115.845281711865	0.375
13775	113930	116.045381711875	0.75
13775	114585	116.580511796417	0.625
13775	115090	116.989696553956	0.5
13775	115806	117.689696553956	0.25
13775	116154	117.995739125696	0.75
13775	117819	119.446814078329	-0.125
13775	117848	119.499119646996	-1
13775	118017	119.606830514266	1
13775	118313	119.816534294962	0.875
13775	118361	119.855254435442	0.5
13775	118544	120.008199899345	0.375
13775	118882	120.323715633112	0.375
13775	118901	120.332013504878	0.75
13775	119524	120.83526606676	0.375
13775	119952	121.23526606676	0.625
13775	120283	121.538347779988	0.625
13775	120613	121.84578954655	0.75
13775	121105	122.269602093848	0.625
13775	121253	122.425318472866	-0.375
13775	121478	122.57855586369	0.75
13775	122457	123.38460254098	0
13775	122684	123.58460254098	0.875
13775	123485	124.293993338639	0.25
13775	123738	124.500394670894	0.875
13775	124443	125.169891038624	0.625
13775	125376	125.95577967121	0.375
13775	125419	125.975544450144	0
13775	125782	126.282128613261	0.75
13775	126177	126.582502941962	0.75
13775	126227	126.602743444978	-1.75
13775	126512	126.863593149694	-0.25
13775	126569	126.884617003856	0.625
13775	126758	127.06906119634	0.375
13775	126943	127.172383218509	0.875
13775	128151	128.172383218509	-0.25
13775	128289	128.212856332925	0.625
13775	128664	128.523073285519	0.75
13775	128811	128.624735082655	0.875
13775	129518	129.195968599335	0.625
13775	130977	130.495968599335	-1
13775	131340	130.808823906783	0.625
13775	131862	131.306007768892	0.25
13775	131914	131.315439241536	0.5
13775	131995	131.404581313837	0
13775	132147	131.509915873921	0.875
13775	132884	132.118887898269	0.375
13775	133405	132.543722092387	0.625
13775	133408	132.548961244328	0.5
13775	133654	132.755156006725	0.75
13775	134014	133.055156006725	0.75
13775	134647	133.555856946008	0.375
13775	135000	133.86555042189	0.75
13775	135495	134.274943232081	0.5
13775	135555	134.341078017961	0
13775	135977	134.647866569124	0.5
13775	136216	134.847866569124	0.875
13775	137129	135.657838686064	0.25
13775	137533	136.058357804398	0.625
13775	137800	136.367386271433	0.75
13775	137883	136.466072917169	0.75
13775	137979	136.574565850054	0.875
13775	138121	136.776186021784	0.75
13776	136	20.10000000001	0.1
13776	505	20.70000000001	0.6
13776	761	21.002395143735	0.3
13776	1124	21.311067775115	0.3
13776	1279	21.504639093175	0.3
13776	2115	22.110511149657	0.6
13776	2872	22.710511149657	0.6
13776	3147	22.921568213693	0.2
13776	3410	23.136189479814	0.2
13776	3753	23.437297796103	0.7
13776	4517	24.041304475438	0.6
13776	5576	25.041304475438	1
13776	6614	25.940310968309	0.5
13776	6847	26.051480353379	0.7
13776	6887	26.05921784257	0
13776	8324	27.254951208213	0.8
13776	9281	28.154951208213	0.9
13776	9501	28.457368416113	0.3
13776	9793	28.761890334275	0.3
13776	10107	29.061890334275	0.3
13776	10377	29.270211670265	0.2
13776	10816	29.671405416526	0.4
13776	11074	29.871405416526	0.2
13776	11751	30.474609904658	0.6
13776	12131	30.782102241484	0.3
13776	12985	31.582102241484	0.8
13776	13466	31.990686848224	0.4
13776	13849	32.354769473266	0.7
13776	14074	32.593947452213	0.6
13776	14101	32.604851399033	0.6
13776	14285	32.763636949338	0.4
13776	14316	32.812578215905	0.2
13776	14560	33.014069466086	0.2
13776	14668	33.115046093587	0.2
13776	14754	33.166482224497	0.4
13776	14908	33.316187959467	0.3
13776	14922	33.323081325925	0.2
13776	14943	33.347753562018	0.2
13776	14994	33.400857479324	0.8
13776	15405	33.709277994678	0.3
13776	15686	33.909277994678	0.2
13776	15956	34.112758718572	0.2
13776	16583	34.612758718572	0.5
13776	17055	35.012858718582	0.4
13776	17990	35.7354134002	0.4
13776	18507	36.212858718582	1.2
13776	18753	36.415939399562	0.2
13776	19211	36.815939399562	0.4
13776	19815	37.241809036258	0.3
13776	19994	37.350287757585	0.1
13776	20402	37.665017549543	0.3
13776	21037	38.176875760613	0.5
13776	21560	38.581334104687	0.4
13776	22523	39.381334104687	0.8
13776	23015	39.787967981323	0.4
13776	23074	39.798053513979	0
13776	23617	40.298053513979	0.5
13776	24379	40.898619389345	0.6
13776	25825	42.198619389345	1.3
13776	26417	42.708151207305	0.5
13776	27003	43.117682701309	0.4
13776	27244	43.327008085035	0.2
13776	27634	43.690795601576	0.7
13776	27718	43.736305878191	0.4
13776	28062	44.000463607928	0.3
13776	28072	44.004589031719	0.5
13776	28505	44.305580269797	0.3
13776	28784	44.505580269797	0.2
13776	29166	44.810996251041	0.3
13776	29603	45.224499952494	0.4
13776	30002	45.529516635608	0.3
13776	30329	45.850075198905	0.3
13776	30471	45.95444405393	0.1
13776	30545	46.029177260645	0.1
13776	30712	46.156353124694	0.2
13776	31190	46.581246170859	0.4
13776	31205	46.610755627873	0.3
13776	31463	46.810982219442	0.2
13776	33104	47.917614814996	1.1
13776	33514	48.217614814996	0.3
13776	33631	48.319027954555	0.3
13776	34357	49.024695177426	0.7
13776	34716	49.424695177426	0.4
13776	35180	49.829717904956	0.4
13776	35543	50.137344229966	0.3
13776	35554	50.140261998272	0.2
13776	35918	50.44473522302	0.9
13776	37817	52.154170188445	1.7
13776	38390	52.654170188445	0.5
13776	38718	52.96046348043	0.3
13776	38989	53.248402058613	0.4
13776	39015	53.262607654128	0.3
13776	39386	53.5645697559	0.3
13776	40584	54.6645697559	1.1
13776	42127	55.965697131776	1.3
13776	42451	56.273573819987	0.3
13776	42650	56.47435470329	0.2
13776	42781	56.579628219939	0.1
13776	43406	57.104878109793	0.1
13776	43961	57.593888330993	0.3
13776	44793	58.193888330993	0.6
13776	45697	58.793988331003	0.6
13776	46312	59.293988331003	0.5
13776	46830	59.703778181426	0.4
13776	47105	59.899755930263	0.5
13776	47246	60.006828206694	0.3
13776	47625	60.314219077577	0.3
13776	48278	60.744092447826	0
13776	48641	61.044092447826	0.3
13776	49036	61.349177932791	0.3
13776	49500	61.832174582545	0.6
13776	50643	62.739469702873	0.9
13776	51219	63.239469702873	0.5
13776	51239	63.251734768105	0.4
13776	52004	63.855194173114	0.6
13776	52097	63.942060643931	0.7
13776	52611	64.442160643941	0.5
13776	53291	65.042160643941	0.6
13776	53508	65.248027075247	0.2
13776	54075	65.754638072508	0.5
13776	54464	66.058527461872	0.3
13776	54485	66.075409631003	0.4
13776	55378	66.778811980186	0.7
13776	55951	67.178811980186	0.4
13776	56438	67.678986127162	0.5
13776	56867	68.179715539977	0.5
13776	57258	68.479815539987	0.3