file 1033776 1369933138                                         
version 2
run Stability-62-20130528-00:54:09-21385
attr configname Stability
attr datetime 20130528-00:54:09
attr experiment Stability
attr inifile omnetpp.ini
attr iterationvars $0=1e0
attr iterationvars2 "$0=1e0, $repetition=2"
attr measurement $0=1e0
attr network Network
attr processid 21385
attr repetition 2
attr replication #2
attr resultdir results
attr runnumber 62
attr seedset 62
vector 6110  Network.churner  inGoingSizeSig:vector  ETV
6110	909810 123966 22 135893 20 133.326683179755 4097 0 31 125546 3868928
vector 6035  Network.dyn_peer[7]  lookupHopsSig:vector  ETV
6035	198431 9092 50 134984 20.008 132.006817632923 309 0 20 1282 8046
vector 6036  Network.dyn_peer[7]  lookupStabilitySig:vector  ETV
6036	207523 10087 50 134984 20.008 132.006817632923 309 -1.5 1 148.75 114.21875
vector 6037  Network.dyn_peer[7]  lookupTimeSig:vector  ETV
6037	217610 9667 50 134984 20.008 132.006817632923 309 0 1.7 143.8 88.86
vector 6065  Network.dyn_peer[17]  lookupHopsSig:vector  ETV
6065	485930 9491 84 135250 20.018 132.293097938627 323 0 19 1268 8310
vector 6066  Network.dyn_peer[17]  lookupStabilitySig:vector  ETV
6066	495421 10526 84 135250 20.018 132.293097938627 323 -1.375 1 164.68055549264 135.84741512199
vector 6067  Network.dyn_peer[17]  lookupTimeSig:vector  ETV
6067	505947 10077 84 135250 20.018 132.293097938627 323 0 1.9 142.9 92.25
vector 6077  Network.dyn_peer[21]  lookupHopsSig:vector  ETV
6077	601052 8036 101 134749 20.022 131.790911615798 274 0 27 1171 8235
vector 6078  Network.dyn_peer[21]  lookupStabilitySig:vector  ETV
6078	609088 8919 101 134749 20.022 131.790911615798 274 -2.375 1 127.625 109.921875
vector 6079  Network.dyn_peer[21]  lookupTimeSig:vector  ETV
6079	618007 8544 101 134749 20.022 131.790911615798 274 0 2.4 129.1 86.57
vector 6083  Network.dyn_peer[23]  lookupHopsSig:vector  ETV
6083	657279 8854 111 135139 20.024 132.178829816336 302 0 17 1197 6839
vector 6084  Network.dyn_peer[23]  lookupStabilitySig:vector  ETV
6084	666133 9861 111 135139 20.024 132.178829816336 302 -1.125 1 152.38888888806 109.63387345532
vector 6085  Network.dyn_peer[23]  lookupTimeSig:vector  ETV
6085	675994 9439 111 135139 20.024 132.178829816336 302 0 1.7 136.2 78.36
vector 6095  Network.dyn_peer[27]  lookupHopsSig:vector  ETV
6095	773664 9179 128 134663 20.028 131.715012212031 312 0 20 1214 7264
vector 6096  Network.dyn_peer[27]  lookupStabilitySig:vector  ETV
6096	782843 10203 128 134663 20.028 131.715012212031 312 -1.5 1 160.25 122
vector 6097  Network.dyn_peer[27]  lookupTimeSig:vector  ETV
6097	793046 9756 128 134663 20.028 131.715012212031 312 0 1.7 134.6 78.28
vector 6098  Network.dyn_peer[28]  lookupHopsSig:vector  ETV
6098	802802 8131 135 134912 20.029 131.917850343744 277 0 20 1236 8764
vector 6099  Network.dyn_peer[28]  lookupStabilitySig:vector  ETV
6099	810933 8978 135 134912 20.029 131.917850343744 277 -1.5 1 122.5 104.9375
vector 6100  Network.dyn_peer[28]  lookupTimeSig:vector  ETV
6100	819911 8646 135 134912 20.029 131.917850343744 277 0 1.9 135.3 91.59
vector 6032  Network.dyn_peer[6]  lookupHopsSig:vector  ETV
6032	171409 8520 158 135633 20.107 132.804910572652 289 0 16 1240 8042
vector 6033  Network.dyn_peer[6]  lookupStabilitySig:vector  ETV
6033	179929 9441 158 135633 20.107 132.804910572652 289 -1 1 134.06944441795 104.71315584065
vector 6034  Network.dyn_peer[6]  lookupTimeSig:vector  ETV
6034	189370 9061 158 135633 20.107 132.804910572652 289 0 1.5 136.9 86.19
vector 6041  Network.dyn_peer[9]  lookupHopsSig:vector  ETV
6041	254199 9321 165 135691 20.11 132.890498814843 318 0 25 1239 7689
vector 6042  Network.dyn_peer[9]  lookupStabilitySig:vector  ETV
6042	263520 10386 165 135691 20.11 132.890498814843 318 -2.125 1 163.125 128.390625
vector 6043  Network.dyn_peer[9]  lookupTimeSig:vector  ETV
6043	273906 9925 165 135691 20.11 132.890498814843 318 0 2.3 140.3 84.89
vector 6044  Network.dyn_peer[10]  lookupHopsSig:vector  ETV
6044	283831 9037 171 135874 20.111 133.258643454847 307 0 15 1341 8537
vector 6045  Network.dyn_peer[10]  lookupStabilitySig:vector  ETV
6045	292868 10068 171 135874 20.111 133.258643454847 307 -0.875 1 139.47222220898 105.25308640283
vector 6046  Network.dyn_peer[10]  lookupTimeSig:vector  ETV
6046	302936 9608 171 135874 20.111 133.258643454847 307 0.1 1.4 148.3 92.71
vector 6053  Network.dyn_peer[13]  lookupHopsSig:vector  ETV
6053	371787 9837 179 135286 20.114 132.316142642777 336 0 16 1283 7615
vector 6054  Network.dyn_peer[13]  lookupStabilitySig:vector  ETV
6054	381624 10923 179 135286 20.114 132.316142642777 336 -1 1 175.625 134.234375
vector 6055  Network.dyn_peer[13]  lookupTimeSig:vector  ETV
6055	392547 10468 179 135286 20.114 132.316142642777 336 0 1.5 146.5 86.99
vector 6071  Network.dyn_peer[19]  lookupHopsSig:vector  ETV
6071	543555 8900 189 134574 20.12 131.671713387881 303 0 15 1292 7952
vector 6072  Network.dyn_peer[19]  lookupStabilitySig:vector  ETV
6072	552455 9917 189 134574 20.12 131.671713387881 303 -0.875 1 141.5 104.25
vector 6073  Network.dyn_peer[19]  lookupTimeSig:vector  ETV
6073	562372 9472 189 134574 20.12 131.671713387881 303 0 1.5 143.4 87.5
vector 6074  Network.dyn_peer[20]  lookupHopsSig:vector  ETV
6074	571844 9184 194 135388 20.121 132.458003814176 312 0 17 1265 7919
vector 6075  Network.dyn_peer[20]  lookupStabilitySig:vector  ETV
6075	581028 10256 194 135388 20.121 132.458003814176 312 -1.125 1 154.01388883591 119.43422069079
vector 6076  Network.dyn_peer[20]  lookupTimeSig:vector  ETV
6076	591284 9768 194 135388 20.121 132.458003814176 312 0 1.7 142.6 88.08
vector 6086  Network.dyn_peer[24]  lookupHopsSig:vector  ETV
6086	685433 9374 201 135752 20.125 132.938598019578 319 0 16 1296 7972
vector 6087  Network.dyn_peer[24]  lookupStabilitySig:vector  ETV
6087	694807 10449 201 135752 20.125 132.938598019578 319 -1 1 157.23611111939 119.57233795082
vector 6088  Network.dyn_peer[24]  lookupTimeSig:vector  ETV
6088	705256 9970 201 135752 20.125 132.938598019578 319 0 1.4 146.1 89.83
vector 6107  Network.dyn_peer[31]  lookupHopsSig:vector  ETV
6107	883653 8243 213 134330 20.132 131.458280157312 282 0 17 1209 7607
vector 6108  Network.dyn_peer[31]  lookupStabilitySig:vector  ETV
6108	891896 9135 213 134330 20.132 131.458280157312 282 -1.125 1 130.875 98.609375
vector 6109  Network.dyn_peer[31]  lookupTimeSig:vector  ETV
6109	901031 8779 213 134330 20.132 131.458280157312 282 0 1.4 133.9 82.29
vector 6014  Network.dyn_peer[0]  lookupHopsSig:vector  ETV
6014	6435 9494 219 135417 20.201 132.491181492061 323 0 23 1247 7689
vector 6015  Network.dyn_peer[0]  lookupStabilitySig:vector  ETV
6015	15929 10561 219 135417 20.201 132.491181492061 323 -1.875 1 167.125 131.390625
vector 6016  Network.dyn_peer[0]  lookupTimeSig:vector  ETV
6016	26490 10109 219 135417 20.201 132.491181492061 323 0 1.9 139.9 82.75
vector 6017  Network.dyn_peer[1]  lookupHopsSig:vector  ETV
6017	36599 8290 224 134820 20.202 131.850236130446 283 0 16 1207 7529
vector 6018  Network.dyn_peer[1]  lookupStabilitySig:vector  ETV
6018	44889 9204 224 134820 20.202 131.850236130446 283 -1 1 132.125 98.890625
vector 6019  Network.dyn_peer[1]  lookupTimeSig:vector  ETV
6019	54093 8830 224 134820 20.202 131.850236130446 283 0 1.5 133.8 83.2
vector 6023  Network.dyn_peer[3]  lookupHopsSig:vector  ETV
6023	89234 8644 231 135891 20.204 133.324493349808 294 0 16 1227 7853
vector 6024  Network.dyn_peer[3]  lookupStabilitySig:vector  ETV
6024	97878 9607 231 135891 20.204 133.324493349808 294 -1 1 140.625 109.953125
vector 6025  Network.dyn_peer[3]  lookupTimeSig:vector  ETV
6025	107485 9204 231 135891 20.204 133.324493349808 294 0 1.5 136.3 83.97
vector 6038  Network.dyn_peer[8]  lookupHopsSig:vector  ETV
6038	227277 8467 240 134600 20.209 131.685305823627 288 0 22 1195 7397
vector 6039  Network.dyn_peer[8]  lookupStabilitySig:vector  ETV
6039	235744 9432 240 134600 20.209 131.685305823627 288 -1.75 1 138.76388886571 104.91570214136
vector 6040  Network.dyn_peer[8]  lookupTimeSig:vector  ETV
6040	245176 9023 240 134600 20.209 131.685305823627 288 0 2 131.3 79.01
vector 6089  Network.dyn_peer[25]  lookupHopsSig:vector  ETV
6089	715226 9161 263 134846 20.226 131.86610368282 312 0 19 1221 7379
vector 6090  Network.dyn_peer[25]  lookupStabilitySig:vector  ETV
6090	724387 10184 263 134846 20.226 131.86610368282 312 -1.375 1 159.375 122.046875
vector 6091  Network.dyn_peer[25]  lookupTimeSig:vector  ETV
6091	734571 9758 263 134846 20.226 131.86610368282 312 0 1.8 137 80.8
vector 6020  Network.dyn_peer[2]  lookupHopsSig:vector  ETV
6020	62923 8293 280 135175 20.303 132.197710481785 282 0 28 1241 9505
vector 6021  Network.dyn_peer[2]  lookupStabilitySig:vector  ETV
6021	71216 9205 280 135175 20.303 132.197710481785 282 -2.5 1 126.875 120.265625
vector 6022  Network.dyn_peer[2]  lookupTimeSig:vector  ETV
6022	80421 8813 280 135175 20.303 132.197710481785 282 0 2.4 136.9 96.65
vector 6029  Network.dyn_peer[5]  lookupHopsSig:vector  ETV
6029	145937 8021 286 134789 20.306 131.813552221488 273 0 17 1148 7364
vector 6030  Network.dyn_peer[5]  lookupStabilitySig:vector  ETV
6030	153958 8920 286 134789 20.306 131.813552221488 273 -1.125 1 129.5 101.0625
vector 6031  Network.dyn_peer[5]  lookupTimeSig:vector  ETV
6031	162878 8531 286 134789 20.306 131.813552221488 273 0 1.6 128.1 81.35
vector 6047  Network.dyn_peer[11]  lookupHopsSig:vector  ETV
6047	312544 9453 298 135733 20.312 132.919981909768 322 0 20 1191 6657
vector 6048  Network.dyn_peer[11]  lookupStabilitySig:vector  ETV
6048	321997 10548 298 135733 20.312 132.919981909768 322 -1.5 1 173.22222220153 128.33873455318
vector 6049  Network.dyn_peer[11]  lookupTimeSig:vector  ETV
6049	332545 10062 298 135733 20.312 132.919981909768 322 0 1.8 137.1 77.21
vector 6050  Network.dyn_peer[12]  lookupHopsSig:vector  ETV
6050	342607 9190 303 135823 20.313 133.109880579897 314 0 24 1275 7971
vector 6051  Network.dyn_peer[12]  lookupStabilitySig:vector  ETV
6051	351797 10207 303 135823 20.313 133.109880579897 314 -2 1 154.625 119.796875
vector 6052  Network.dyn_peer[12]  lookupTimeSig:vector  ETV
6052	362004 9783 303 135823 20.313 133.109880579897 314 0 2.3 143.8 89.04
vector 6056  Network.dyn_peer[14]  lookupHopsSig:vector  ETV
6056	403015 8549 310 135540 20.315 132.658543454847 291 0 18 1102 6698
vector 6057  Network.dyn_peer[14]  lookupStabilitySig:vector  ETV
6057	411564 9515 310 135540 20.315 132.658543454847 291 -1.25 1 153.27777777612 120.19868826903
vector 6058  Network.dyn_peer[14]  lookupTimeSig:vector  ETV
6058	421079 9108 310 135540 20.315 132.658543454847 291 0 1.6 125.1 74.11
vector 6059  Network.dyn_peer[15]  lookupHopsSig:vector  ETV
6059	430187 8746 315 135802 20.316 133.058643454847 297 0 29 1376 9888
vector 6060  Network.dyn_peer[15]  lookupStabilitySig:vector  ETV
6060	438933 9690 315 135802 20.316 133.058643454847 297 -2.625 1 125 107.5
vector 6061  Network.dyn_peer[15]  lookupTimeSig:vector  ETV
6061	448623 9304 315 135802 20.316 133.058643454847 297 0 2.6 149.2 101.92
vector 6062  Network.dyn_peer[16]  lookupHopsSig:vector  ETV
6062	457927 8824 321 135696 20.317 132.894376885625 301 0 17 1228 7868
vector 6063  Network.dyn_peer[16]  lookupStabilitySig:vector  ETV
6063	466751 9792 321 135696 20.317 132.894376885625 301 -1.125 1 147.55555555224 116.99614197163
vector 6064  Network.dyn_peer[16]  lookupTimeSig:vector  ETV
6064	476543 9387 321 135696 20.317 132.894376885625 301 0 1.7 137.7 87.35
vector 6068  Network.dyn_peer[18]  lookupHopsSig:vector  ETV
6068	516024 8657 371 134887 20.419 131.902680007841 295 0 22 1206 7820
vector 6069  Network.dyn_peer[18]  lookupStabilitySig:vector  ETV
6069	524681 9659 371 134887 20.419 131.902680007841 295 -1.75 1 144.30555555224 115.77237653806
vector 6070  Network.dyn_peer[18]  lookupTimeSig:vector  ETV
6070	534340 9215 371 134887 20.419 131.902680007841 295 0 2 135.4 84.84
vector 6092  Network.dyn_peer[26]  lookupHopsSig:vector  ETV
6092	744329 9247 384 135607 20.427 132.763851170957 315 0 21 1259 8543
vector 6093  Network.dyn_peer[26]  lookupStabilitySig:vector  ETV
6093	753576 10262 384 135607 20.427 132.763851170957 315 -1.625 1 157.69444441795 133.79128084065
vector 6094  Network.dyn_peer[26]  lookupTimeSig:vector  ETV
6094	763838 9826 384 135607 20.427 132.763851170957 315 0 2 140.7 91.11
vector 6026  Network.dyn_peer[4]  lookupHopsSig:vector  ETV
6026	116689 9202 416 135662 20.505 132.853193720818 312 0 14 1259 7525
vector 6027  Network.dyn_peer[4]  lookupStabilitySig:vector  ETV
6027	125891 10249 416 135662 20.505 132.853193720818 312 -0.75 1 154.625 114.828125
vector 6028  Network.dyn_peer[4]  lookupTimeSig:vector  ETV
6028	136140 9797 416 135662 20.505 132.853193720818 312 0 1.4 140.2 83.42
vector 6080  Network.dyn_peer[22]  lookupHopsSig:vector  ETV
6080	626551 9688 445 135157 20.523 132.191081492061 330 0 21 1287 7885
vector 6081  Network.dyn_peer[22]  lookupStabilitySig:vector  ETV
6081	636239 10738 445 135157 20.523 132.191081492061 330 -1.625 1 169.16666665673 131.5069444312
vector 6082  Network.dyn_peer[22]  lookupTimeSig:vector  ETV
6082	646977 10302 445 135157 20.523 132.191081492061 330 0 1.8 145.8 87.32
vector 6101  Network.dyn_peer[29]  lookupHopsSig:vector  ETV
6101	828557 9026 460 135081 20.53 132.103605365583 307 0 21 1226 8092
vector 6102  Network.dyn_peer[29]  lookupStabilitySig:vector  ETV
6102	837583 10078 460 135081 20.53 132.103605365583 307 -1.625 1 153.91666664183 127.06751541039
vector 6103  Network.dyn_peer[29]  lookupTimeSig:vector  ETV
6103	847661 9603 460 135081 20.53 132.103605365583 307 0 1.7 137.5 85.15
vector 6104  Network.dyn_peer[30]  lookupHopsSig:vector  ETV
6104	857264 8312 642 135355 20.831 132.415191371638 284 0 16 1229 8055
vector 6105  Network.dyn_peer[30]  lookupStabilitySig:vector  ETV
6105	865576 9238 642 135355 20.831 132.415191371638 284 -1 1 130.43055555224 102.66801697163
vector 6106  Network.dyn_peer[30]  lookupTimeSig:vector  ETV
6106	874814 8839 642 135355 20.831 132.415191371638 284 0 1.4 136 86.24
