version 2
run Stability-91-20130528-00:56:19-21385
attr configname Stability
attr datetime 20130528-00:56:19
attr experiment Stability
attr inifile omnetpp.ini
attr iterationvars $0=1e-3
attr iterationvars2 "$0=1e-3, $repetition=1"
attr measurement $0=1e-3
attr network Network
attr processid 21385
attr repetition 1
attr replication #1
attr resultdir results
attr runnumber 91
attr seedset 91

vector 8923  Network.churner  inGoingSizeSig:vector  ETV
vector 8827  Network.dyn_peer[0]  lookupHopsSig:vector  ETV
vector 8828  Network.dyn_peer[0]  lookupStabilitySig:vector  ETV
vector 8829  Network.dyn_peer[0]  lookupTimeSig:vector  ETV
vector 8830  Network.dyn_peer[1]  lookupHopsSig:vector  ETV
vector 8831  Network.dyn_peer[1]  lookupStabilitySig:vector  ETV
vector 8832  Network.dyn_peer[1]  lookupTimeSig:vector  ETV
vector 8875  Network.dyn_peer[16]  lookupHopsSig:vector  ETV
vector 8876  Network.dyn_peer[16]  lookupStabilitySig:vector  ETV
vector 8877  Network.dyn_peer[16]  lookupTimeSig:vector  ETV
vector 8833  Network.dyn_peer[2]  lookupHopsSig:vector  ETV
vector 8834  Network.dyn_peer[2]  lookupStabilitySig:vector  ETV
vector 8835  Network.dyn_peer[2]  lookupTimeSig:vector  ETV
vector 8839  Network.dyn_peer[4]  lookupHopsSig:vector  ETV
vector 8840  Network.dyn_peer[4]  lookupStabilitySig:vector  ETV
vector 8841  Network.dyn_peer[4]  lookupTimeSig:vector  ETV
vector 8848  Network.dyn_peer[7]  lookupHopsSig:vector  ETV
vector 8849  Network.dyn_peer[7]  lookupStabilitySig:vector  ETV
vector 8850  Network.dyn_peer[7]  lookupTimeSig:vector  ETV
vector 8854  Network.dyn_peer[9]  lookupHopsSig:vector  ETV
vector 8855  Network.dyn_peer[9]  lookupStabilitySig:vector  ETV
vector 8856  Network.dyn_peer[9]  lookupTimeSig:vector  ETV
vector 8857  Network.dyn_peer[10]  lookupHopsSig:vector  ETV
vector 8858  Network.dyn_peer[10]  lookupStabilitySig:vector  ETV
vector 8859  Network.dyn_peer[10]  lookupTimeSig:vector  ETV
vector 8878  Network.dyn_peer[17]  lookupHopsSig:vector  ETV
vector 8879  Network.dyn_peer[17]  lookupStabilitySig:vector  ETV
vector 8880  Network.dyn_peer[17]  lookupTimeSig:vector  ETV
vector 8896  Network.dyn_peer[23]  lookupHopsSig:vector  ETV
vector 8897  Network.dyn_peer[23]  lookupStabilitySig:vector  ETV
vector 8898  Network.dyn_peer[23]  lookupTimeSig:vector  ETV
vector 8902  Network.dyn_peer[25]  lookupHopsSig:vector  ETV
vector 8903  Network.dyn_peer[25]  lookupStabilitySig:vector  ETV
vector 8904  Network.dyn_peer[25]  lookupTimeSig:vector  ETV
vector 8908  Network.dyn_peer[27]  lookupHopsSig:vector  ETV
vector 8909  Network.dyn_peer[27]  lookupStabilitySig:vector  ETV
vector 8910  Network.dyn_peer[27]  lookupTimeSig:vector  ETV
vector 8911  Network.dyn_peer[28]  lookupHopsSig:vector  ETV
vector 8912  Network.dyn_peer[28]  lookupStabilitySig:vector  ETV
vector 8913  Network.dyn_peer[28]  lookupTimeSig:vector  ETV
vector 8917  Network.dyn_peer[30]  lookupHopsSig:vector  ETV
vector 8918  Network.dyn_peer[30]  lookupStabilitySig:vector  ETV
vector 8919  Network.dyn_peer[30]  lookupTimeSig:vector  ETV
vector 8842  Network.dyn_peer[5]  lookupHopsSig:vector  ETV
vector 8843  Network.dyn_peer[5]  lookupStabilitySig:vector  ETV
vector 8844  Network.dyn_peer[5]  lookupTimeSig:vector  ETV
vector 8845  Network.dyn_peer[6]  lookupHopsSig:vector  ETV
vector 8846  Network.dyn_peer[6]  lookupStabilitySig:vector  ETV
vector 8847  Network.dyn_peer[6]  lookupTimeSig:vector  ETV
vector 8851  Network.dyn_peer[8]  lookupHopsSig:vector  ETV
vector 8852  Network.dyn_peer[8]  lookupStabilitySig:vector  ETV
vector 8853  Network.dyn_peer[8]  lookupTimeSig:vector  ETV
vector 8860  Network.dyn_peer[11]  lookupHopsSig:vector  ETV
vector 8861  Network.dyn_peer[11]  lookupStabilitySig:vector  ETV
vector 8862  Network.dyn_peer[11]  lookupTimeSig:vector  ETV
vector 8869  Network.dyn_peer[14]  lookupHopsSig:vector  ETV
vector 8870  Network.dyn_peer[14]  lookupStabilitySig:vector  ETV
vector 8871  Network.dyn_peer[14]  lookupTimeSig:vector  ETV
vector 8884  Network.dyn_peer[19]  lookupHopsSig:vector  ETV
vector 8885  Network.dyn_peer[19]  lookupStabilitySig:vector  ETV
vector 8886  Network.dyn_peer[19]  lookupTimeSig:vector  ETV
vector 8887  Network.dyn_peer[20]  lookupHopsSig:vector  ETV
vector 8888  Network.dyn_peer[20]  lookupStabilitySig:vector  ETV
vector 8889  Network.dyn_peer[20]  lookupTimeSig:vector  ETV
vector 8890  Network.dyn_peer[21]  lookupHopsSig:vector  ETV
vector 8891  Network.dyn_peer[21]  lookupStabilitySig:vector  ETV
vector 8892  Network.dyn_peer[21]  lookupTimeSig:vector  ETV
vector 8893  Network.dyn_peer[22]  lookupHopsSig:vector  ETV
vector 8894  Network.dyn_peer[22]  lookupStabilitySig:vector  ETV
vector 8895  Network.dyn_peer[22]  lookupTimeSig:vector  ETV
vector 8866  Network.dyn_peer[13]  lookupHopsSig:vector  ETV
vector 8867  Network.dyn_peer[13]  lookupStabilitySig:vector  ETV
vector 8868  Network.dyn_peer[13]  lookupTimeSig:vector  ETV
vector 8872  Network.dyn_peer[15]  lookupHopsSig:vector  ETV
vector 8873  Network.dyn_peer[15]  lookupStabilitySig:vector  ETV
vector 8874  Network.dyn_peer[15]  lookupTimeSig:vector  ETV
vector 8920  Network.dyn_peer[31]  lookupHopsSig:vector  ETV
vector 8921  Network.dyn_peer[31]  lookupStabilitySig:vector  ETV
vector 8922  Network.dyn_peer[31]  lookupTimeSig:vector  ETV
vector 8836  Network.dyn_peer[3]  lookupHopsSig:vector  ETV
vector 8837  Network.dyn_peer[3]  lookupStabilitySig:vector  ETV
vector 8838  Network.dyn_peer[3]  lookupTimeSig:vector  ETV
vector 8881  Network.dyn_peer[18]  lookupHopsSig:vector  ETV
vector 8882  Network.dyn_peer[18]  lookupStabilitySig:vector  ETV
vector 8883  Network.dyn_peer[18]  lookupTimeSig:vector  ETV
vector 8914  Network.dyn_peer[29]  lookupHopsSig:vector  ETV
vector 8915  Network.dyn_peer[29]  lookupStabilitySig:vector  ETV
vector 8916  Network.dyn_peer[29]  lookupTimeSig:vector  ETV
vector 8863  Network.dyn_peer[12]  lookupHopsSig:vector  ETV
vector 8864  Network.dyn_peer[12]  lookupStabilitySig:vector  ETV
vector 8865  Network.dyn_peer[12]  lookupTimeSig:vector  ETV
vector 8899  Network.dyn_peer[24]  lookupHopsSig:vector  ETV
vector 8900  Network.dyn_peer[24]  lookupStabilitySig:vector  ETV
vector 8901  Network.dyn_peer[24]  lookupTimeSig:vector  ETV
vector 8905  Network.dyn_peer[26]  lookupHopsSig:vector  ETV
vector 8906  Network.dyn_peer[26]  lookupStabilitySig:vector  ETV
vector 8907  Network.dyn_peer[26]  lookupTimeSig:vector  ETV
8827	28	20.000001	0
8827	338	20.400001	3
8827	682	20.803540223071	3
8827	1018	21.205367126481	3
8827	1352	21.508745997841	2
8827	1812	21.911184669568	4
8827	2300	22.311184669568	3
8827	2754	22.611665914939	2
8827	2882	22.711210470567	2
8827	3243	22.946426504889	1
8827	3304	23.019346408912	1
8827	3805	23.45336617692	4
8827	4563	24.058989077762	6
8827	5022	24.458989077762	3
8827	5264	24.661401869341	2
8827	5772	25.061401869341	3
8827	5992	25.261502869341	2
8827	6511	25.661502869341	4
8827	7182	26.369736387482	6
8827	7781	26.938505983929	6
8827	7787	26.938605983929	2
8827	8287	27.274133146975	3
8827	8913	27.774234146975	6
8827	9248	28.074234146975	2
8827	10022	28.847775801131	4
8827	10074	28.876131698315	8
8827	10549	29.372899523815	1
8827	10565	29.373000523815	0
8827	11405	30.085201556314	1
8827	12033	30.673000523815	13
8827	12418	30.982765826416	3
8827	12697	31.286383932734	2
8827	12932	31.486484932734	2
8827	14038	32.386484932734	8
8827	14671	32.894990235003	5
8827	15149	33.205084522246	3
8827	15824	33.705084522246	4
8827	16116	33.925202596613	1
8827	16378	34.125303596613	2
8827	16994	34.725303596613	5
8827	17487	35.133613765215	4
8827	17744	35.334659763426	2
8827	17926	35.514439499433	2
8827	18042	35.541739310564	1
8827	18104	35.619493436729	8
8827	18906	36.229284145649	6
8827	19778	36.929284145649	7
8827	20230	37.333679220097	3
8827	20670	37.635742035612	4
8827	20977	37.837094804067	3
8827	21222	38.037094804067	1
8827	21739	38.442134233852	5
8827	22216	38.842487708488	7
8827	22720	39.242588708488	4
8827	23223	39.642588708488	3
8827	23575	39.952318068883	2
8827	23978	40.261385235768	2
8827	24018	40.298880308015	5
8827	24331	40.502440541931	2
8827	25143	41.100269248457	4
8827	25546	41.400269248457	2
8827	26088	41.900548462895	4
8827	26236	42.01801583212	3
8827	26512	42.308144577575	4
8827	26779	42.508245577575	2
8827	27102	42.808245577575	2
8827	27493	43.116201120231	2
8827	28179	43.718276263211	6
8827	28599	44.049369468323	1
8827	29495	44.749369468323	6
8827	29707	44.948675224845	4
8827	30221	45.348776224845	5
8827	30615	45.748776224845	3
8827	31035	46.151459330076	3
8827	31317	46.458978275307	3
8827	32157	47.168387182625	3
8827	32497	47.471751708846	11
8827	32598	47.568590990984	3
8827	32605	47.573472676933	3
8827	32708	47.673573676933	1
8827	33861	48.75582465952	4
8827	34020	48.873573676933	13
8827	34251	49.061686270916	2
8827	34571	49.286916479161	3
8827	34825	49.485562581279	4
8827	35050	49.668105917965	7
8827	35689	50.168206917965	5
8827	35940	50.368206917965	1
8827	36743	51.195971513494	7
8827	37530	51.880824657149	2
8827	37837	52.081404014668	2
8827	38680	52.781404014668	6
8827	38923	52.982522430057	1
8827	39779	53.782623430057	8
8827	41189	54.921755802619	12
8827	41392	55.121755802619	1
8827	41676	55.329240719425	2
8827	42090	55.729240719425	3
8827	42804	56.429749561921	6
8827	42806	56.429938552534	6
8827	43287	56.833430498662	5
8827	43543	57.03495386503	6
8827	43986	57.33505486503	4
8827	44790	57.93505486503	5
8827	45249	58.345104690311	3
8827	45628	58.647416757969	2
8827	45816	58.847699064253	1
8827	45965	58.952733404192	1
8827	46523	59.352733404192	4
8827	46801	59.556962558774	1
8827	47632	60.274991110211	7
8827	48010	60.579630096765	3
8827	48236	60.779630096765	1
8827	48490	60.982931019531	1
8827	48620	61.097682069195	1
8827	48967	61.386168608688	3
8827	49244	61.594417913712	2
8827	49597	61.894417913712	2
8827	50232	62.39780049411	6
8827	50501	62.598959925518	2
8827	51601	63.599060925518	13
8827	52609	64.499060925518	9
8827	53051	64.807348615683	2
8827	53620	65.20952163774	3
8827	53723	65.295469352972	11
8827	53910	65.41193039308	3
8827	54531	66.014288931468	7
8827	55958	67.215362890163	7
8827	57273	68.325559672008	1
8827	57948	68.825660672008	5
8827	58342	69.125660672008	3
8827	59501	70.035125382334	9
8827	59824	70.335125382334	2
8827	60083	70.536010711871	1
8827	61224	71.437022822477	9
8827	62406	72.437022822477	11
8827	63015	72.941031972161	4
8827	63032	72.945868243612	0
8827	64494	73.945868243612	11
8827	64870	74.253919291002	2
8827	65172	74.555886814812	2
8827	67803	76.456731566868	21
8827	68024	76.656731566868	1
8827	68589	77.167497283547	4
8827	68883	77.373154502294	3
8827	69228	77.673154502294	2
8827	70161	78.388345476994	6
8827	70846	78.880450370856	14
8827	71112	79.081001175192	1
8827	71212	79.169872114049	1
8827	71260	79.210815682499	7
8827	71667	79.514154781793	4
8827	72395	80.214154781793	6
8827	73094	80.823306237986	5
8827	73885	81.432687039729	5
8827	74647	82.142128003035	6
8827	74654	82.152245048801	7
8827	74869	82.350914809697	1
8827	74892	82.362036858162	1
8827	74941	82.374411081635	1
8827	75563	82.885066988833	4
8827	75565	82.885353937868	4
8827	76810	83.885454937868	10
8827	77435	84.585454937868	6
8827	77711	84.794588047441	1
8827	77997	85.020949920613	1
8827	78371	85.326116795729	2
8827	78454	85.417756629189	2
8827	78570	85.533534296572	1
8827	78795	85.736644883533	1
8827	79408	86.33773123756	5
8827	79761	86.638784307473	2
8827	79830	86.719087020122	14
8827	80144	86.92836809029	2
8827	80372	87.12836809029	1
8827	80725	87.431585069369	1
8827	81267	87.837663332947	4
8827	81695	88.137663332947	2
8827	82193	88.641658296851	6
8827	82504	88.933998999768	1
8827	82789	89.239469399817	2
8827	82809	89.24438301407	6
8827	83147	89.544797204689	3
8827	83473	89.830774141698	0
8827	84170	90.530774141698	6
8827	84320	90.630875141698	1
8827	84907	91.130875141698	5
8827	85901	91.937197809683	8
8827	86354	92.344444193688	3
8827	87952	93.646980174485	14
8827	89033	94.546980174485	10
8827	89319	94.848482235684	2
8827	90066	95.482475767963	5
8827	90493	95.794385042733	2
8827	90585	95.852306117459	10
8827	90728	95.982575767963	8
8827	91066	96.284979299251	3
8827	91442	96.584979299251	3
8827	91894	96.974568518767	4
8827	92177	97.211012607926	5
8827	92411	97.418145691239	1
8827	92479	97.479921209499	4
8827	92688	97.629481740001	1
8827	92705	97.635538592773	1
8827	92735	97.692454452612	1
8827	92892	97.793961039861	1
8827	93586	98.393961039861	5
8827	94247	98.913385107886	3
8827	94329	98.99933485768	6
8827	94802	99.396224849019	4
8827	94812	99.40890567724	3
8827	94838	99.420406621925	5
8827	95065	99.622341784298	2
8827	95998	100.322341784298	6
8827	96350	100.626220705698	2
8827	97035	101.230227300995	5
8827	97191	101.352948261659	5
8827	97735	101.761105416716	3
8827	97830	101.844341801552	3
8827	98129	102.045403190522	2
8827	98398	102.245403190522	1
8827	98673	102.454299712086	1
8827	98939	102.655917513112	1
8827	99111	102.83154987131	1
8827	99793	103.332706131424	5
8827	100538	103.932706131424	6
8827	101156	104.43708524528	4
8827	101293	104.545327853262	0
8827	101548	104.748708266538	1
8827	101882	105.051001168767	4
8827	102059	105.251001168767	1
8827	102619	105.775568660991	3
8827	102712	105.857167983907	7
8827	103557	106.559199882251	9
8827	104369	107.259199882251	7
8827	104952	107.861510201991	5
8827	105159	108.014555988238	3
8827	105439	108.270035623687	3
8827	105686	108.478558611218	1
8827	105985	108.723640353496	6
8827	106529	109.127368267788	5
8827	107355	109.727368267788	6
8827	108097	110.238828234282	5
8827	108635	110.593830162817	3
8827	109074	110.900153464085	2
8827	109601	111.305685120523	4
8827	109949	111.605685120523	2
8827	110292	111.905885120523	2
8827	110506	112.105986120523	2
8827	111443	112.905986120523	7
8827	112553	113.712658224821	8
8827	113096	114.112658224821	4
8827	113767	114.619497919555	4
8827	114726	115.329104888757	6
8827	115522	115.929204462867	5
8827	115621	115.981317546479	16
8827	116309	116.58085738568	7
8827	116448	116.690731165443	6
8827	116460	116.735500673793	7
8827	118230	118.139872902497	17
8827	119275	119.14234151049	9
8827	119971	119.765430623818	2
8827	120207	119.950185752058	7
8827	120245	120.001038043544	3
8827	120957	120.505506397825	5
8827	121393	120.805506397825	2
8827	122184	121.305706397825	4
8827	122191	121.310359352709	4
8827	122829	121.813766233722	4
8827	122852	121.818668938726	4
8827	122897	121.83164961174	3
8827	123595	122.438995197513	6
8827	123929	122.738995197513	2
8827	124602	123.34883886841	6
8827	125536	124.14883886841	8
8827	125986	124.540950154161	6
8827	126258	124.746768245351	2
8827	126381	124.849881958953	6
8827	126579	125.048632759857	4
8827	126637	125.06280695877	2
8827	127112	125.456003095244	4
8827	127359	125.662729236372	2
8827	127921	126.170653198932	5
8827	127931	126.173931383926	2
8827	128327	126.556667499822	2
8827	128699	126.856768499822	3
8827	129440	127.456768499822	7
8827	130358	128.266759727003	7
8827	130587	128.472122166691	1
8827	130610	128.475977720925	0
8827	130876	128.775977720925	2
8827	130971	128.880312757577	1
8827	131221	129.089154697087	1
8827	131556	129.298448626146	1
8827	131660	129.385330685681	1
8827	131937	129.574851767621	6
8827	132236	129.775403669652	2
8827	133047	130.375403669652	5
8827	133480	130.771304935987	7
8827	133541	130.800130862162	2
8827	133757	130.979170601303	5
8827	134894	131.887788712142	10
8827	135215	132.187788712142	2
8828	28	20.000001	1
8828	338	20.400001	0.625
8828	682	20.803540223071	0.625
8828	1018	21.205367126481	0.625
8828	1352	21.508745997841	0.75
8828	1812	21.911184669568	0.5
8828	2300	22.311184669568	0.625
8828	2754	22.611665914939	0.75
8828	2882	22.711210470567	0.75
8828	3243	22.946426504889	0.875
8828	3304	23.019346408912	0.875
8828	3805	23.45336617692	0.5
8828	4563	24.058989077762	0.25
8828	5022	24.458989077762	0.625
8828	5264	24.661401869341	0.75
8828	5772	25.061401869341	0.625
8828	5992	25.261502869341	0.75
8828	6511	25.661502869341	0.5
8828	7182	26.369736387482	0.25
8828	7781	26.938505983929	0.25
8828	7787	26.938605983929	0.75
8828	8287	27.274133146975	0.625
8828	8913	27.774234146975	0.25
8828	9248	28.074234146975	0.75
8828	10022	28.847775801131	0.5
8828	10074	28.876131698315	0
8828	10549	29.372899523815	0.875
8828	10565	29.373000523815	1
8828	11405	30.085201556314	0.875
8828	12033	30.673000523815	-0.625
8828	12418	30.982765826416	0.625
8828	12697	31.286383932734	0.75
8828	12932	31.486484932734	0.75
8828	14038	32.386484932734	0
8828	14671	32.894990235003	0.375
8828	15149	33.205084522246	0.625
8828	15824	33.705084522246	0.5
8828	16116	33.925202596613	0.875
8828	16378	34.125303596613	0.75
8828	16994	34.725303596613	0.375
8828	17487	35.133613765215	0.5
8828	17744	35.334659763426	0.75
8828	17926	35.514439499433	0.75
8828	18042	35.541739310564	0.875
8828	18104	35.619493436729	0
8828	18906	36.229284145649	0.25
8828	19778	36.929284145649	0.125
8828	20230	37.333679220097	0.625
8828	20670	37.635742035612	0.5
8828	20977	37.837094804067	0.625
8828	21222	38.037094804067	0.875
8828	21739	38.442134233852	0.375
8828	22216	38.842487708488	0.125
8828	22720	39.242588708488	0.5
8828	23223	39.642588708488	0.625
8828	23575	39.952318068883	0.75
8828	23978	40.261385235768	0.75
8828	24018	40.298880308015	0.375
8828	24331	40.502440541931	0.75
8828	25143	41.100269248457	0.5
8828	25546	41.400269248457	0.75
8828	26088	41.900548462895	0.5
8828	26236	42.01801583212	0.625
8828	26512	42.308144577575	0.5
8828	26779	42.508245577575	0.75
8828	27102	42.808245577575	0.75
8828	27493	43.116201120231	0.75
8828	28179	43.718276263211	0.25
8828	28599	44.049369468323	0.875
8828	29495	44.749369468323	0.25
8828	29707	44.948675224845	0.5
8828	30221	45.348776224845	0.375
8828	30615	45.748776224845	0.625
8828	31035	46.151459330076	0.625
8828	31317	46.458978275307	0.625
8828	32157	47.168387182625	0.625
8828	32497	47.471751708846	-0.375
8828	32598	47.568590990984	0.625
8828	32605	47.573472676933	0.625
8828	32708	47.673573676933	0.875
8828	33861	48.75582465952	0.5
8828	34020	48.873573676933	-0.625
8828	34251	49.061686270916	0.75
8828	34571	49.286916479161	0.625
8828	34825	49.485562581279	0.5
8828	35050	49.668105917965	0.125
8828	35689	50.168206917965	0.375
8828	35940	50.368206917965	0.875
8828	36743	51.195971513494	0.125
8828	37530	51.880824657149	0.75
8828	37837	52.081404014668	0.75
8828	38680	52.781404014668	0.25
8828	38923	52.982522430057	0.875
8828	39779	53.782623430057	0
8828	41189	54.921755802619	-0.5
8828	41392	55.121755802619	0.875
8828	41676	55.329240719425	0.77777777612209
8828	42090	55.729240719425	0.625
8828	42804	56.429749561921	0.25
8828	42806	56.429938552534	0.25
8828	43287	56.833430498662	0.375
8828	43543	57.03495386503	0.25
8828	43986	57.33505486503	0.5
8828	44790	57.93505486503	0.375
8828	45249	58.345104690311	0.625
8828	45628	58.647416757969	0.75
8828	45816	58.847699064253	0.875
8828	45965	58.952733404192	0.875
8828	46523	59.352733404192	0.5
8828	46801	59.556962558774	0.875
8828	47632	60.274991110211	0.125
8828	48010	60.579630096765	0.625
8828	48236	60.779630096765	0.875
8828	48490	60.982931019531	0.875
8828	48620	61.097682069195	0.875
8828	48967	61.386168608688	0.625
8828	49244	61.594417913712	0.75
8828	49597	61.894417913712	0.75
8828	50232	62.39780049411	0.25
8828	50501	62.598959925518	0.75
8828	51601	63.599060925518	-0.625
8828	52609	64.499060925518	-0.125
8828	53051	64.807348615683	0.75
8828	53620	65.20952163774	0.625
8828	53723	65.295469352972	-0.375
8828	53910	65.41193039308	0.625
8828	54531	66.014288931468	0.125
8828	55958	67.215362890163	0.125
8828	57273	68.325559672008	0.875
8828	57948	68.825660672008	0.375
8828	58342	69.125660672008	0.625
8828	59501	70.035125382334	-0.125
8828	59824	70.335125382334	0.75
8828	60083	70.536010711871	0.875
8828	61224	71.437022822477	-0.125
8828	62406	72.437022822477	-0.375
8828	63015	72.941031972161	0.5
8828	63032	72.945868243612	1
8828	64494	73.945868243612	-0.375
8828	64870	74.253919291002	0.75
8828	65172	74.555886814812	0.75
8828	67803	76.456731566868	-1.625
8828	68024	76.656731566868	0.875
8828	68589	77.167497283547	0.5
8828	68883	77.373154502294	0.625
8828	69228	77.673154502294	0.75
8828	70161	78.388345476994	0.25
8828	70846	78.880450370856	-0.75
8828	71112	79.081001175192	0.875
8828	71212	79.169872114049	0.875
8828	71260	79.210815682499	0.125
8828	71667	79.514154781793	0.55555555224419
8828	72395	80.214154781793	0.25
8828	73094	80.823306237986	0.375
8828	73885	81.432687039729	0.375
8828	74647	82.142128003035	0.25
8828	74654	82.152245048801	0.125
8828	74869	82.350914809697	0.875
8828	74892	82.362036858162	0.875
8828	74941	82.374411081635	0.875
8828	75563	82.885066988833	0.5
8828	75565	82.885353937868	0.5
8828	76810	83.885454937868	-0.25
8828	77435	84.585454937868	0.25
8828	77711	84.794588047441	0.875
8828	77997	85.020949920613	0.875
8828	78371	85.326116795729	0.75
8828	78454	85.417756629189	0.75
8828	78570	85.533534296572	0.875
8828	78795	85.736644883533	0.875
8828	79408	86.33773123756	0.375
8828	79761	86.638784307473	0.75
8828	79830	86.719087020122	-0.75
8828	80144	86.92836809029	0.75
8828	80372	87.12836809029	0.875
8828	80725	87.431585069369	0.875
8828	81267	87.837663332947	0.5
8828	81695	88.137663332947	0.75
8828	82193	88.641658296851	0.25
8828	82504	88.933998999768	0.875
8828	82789	89.239469399817	0.75
8828	82809	89.24438301407	0.25
8828	83147	89.544797204689	0.625
8828	83473	89.830774141698	1
8828	84170	90.530774141698	0.25
8828	84320	90.630875141698	0.875
8828	84907	91.130875141698	0.375
8828	85901	91.937197809683	0
8828	86354	92.344444193688	0.625
8828	87952	93.646980174485	-0.75
8828	89033	94.546980174485	-0.25
8828	89319	94.848482235684	0.75
8828	90066	95.482475767963	0.375
8828	90493	95.794385042733	0.75
8828	90585	95.852306117459	-0.25
8828	90728	95.982575767963	0
8828	91066	96.284979299251	0.625
8828	91442	96.584979299251	0.625
8828	91894	96.974568518767	0.5
8828	92177	97.211012607926	0.375
8828	92411	97.418145691239	0.875
8828	92479	97.479921209499	0.5
8828	92688	97.629481740001	0.875
8828	92705	97.635538592773	0.875
8828	92735	97.692454452612	0.875
8828	92892	97.793961039861	0.875
8828	93586	98.393961039861	0.375
8828	94247	98.913385107886	0.625
8828	94329	98.99933485768	0.25
8828	94802	99.396224849019	0.5
8828	94812	99.40890567724	0.625
8828	94838	99.420406621925	0.375
8828	95065	99.622341784298	0.75
8828	95998	100.322341784298	0.25
8828	96350	100.626220705698	0.75
8828	97035	101.230227300995	0.375
8828	97191	101.352948261659	0.375
8828	97735	101.761105416716	0.625
8828	97830	101.844341801552	0.625
8828	98129	102.045403190522	0.75
8828	98398	102.245403190522	0.875
8828	98673	102.454299712086	0.875
8828	98939	102.655917513112	0.875
8828	99111	102.83154987131	0.875
8828	99793	103.332706131424	0.375
8828	100538	103.932706131424	0.25
8828	101156	104.43708524528	0.5
8828	101293	104.545327853262	1
8828	101548	104.748708266538	0.875
8828	101882	105.051001168767	0.5
8828	102059	105.251001168767	0.875
8828	102619	105.775568660991	0.625
8828	102712	105.857167983907	0.125
8828	103557	106.559199882251	-0.125
8828	104369	107.259199882251	0.125
8828	104952	107.861510201991	0.375
8828	105159	108.014555988238	0.625
8828	105439	108.270035623687	0.625
8828	105686	108.478558611218	0.875
8828	105985	108.723640353496	0.25
8828	106529	109.127368267788	0.375
8828	107355	109.727368267788	0.25
8828	108097	110.238828234282	0.375
8828	108635	110.593830162817	0.625
8828	109074	110.900153464085	0.75
8828	109601	111.305685120523	0.5
8828	109949	111.605685120523	0.75
8828	110292	111.905885120523	0.75
8828	110506	112.105986120523	0.75
8828	111443	112.905986120523	0.125
8828	112553	113.712658224821	0
8828	113096	114.112658224821	0.5
8828	113767	114.619497919555	0.5
8828	114726	115.329104888757	0.25
8828	115522	115.929204462867	0.375
8828	115621	115.981317546479	-1
8828	116309	116.58085738568	0.125
8828	116448	116.690731165443	0.25
8828	116460	116.735500673793	0.125
8828	118230	118.139872902497	-1.125
8828	119275	119.14234151049	-0.125
8828	119971	119.765430623818	0.75
8828	120207	119.950185752058	0.125
8828	120245	120.001038043544	0.625
8828	120957	120.505506397825	0.375
8828	121393	120.805506397825	0.75
8828	122184	121.305706397825	0.5
8828	122191	121.310359352709	0.5
8828	122829	121.813766233722	0.5
8828	122852	121.818668938726	0.5
8828	122897	121.83164961174	0.625
8828	123595	122.438995197513	0.25
8828	123929	122.738995197513	0.75
8828	124602	123.34883886841	0.25
8828	125536	124.14883886841	0
8828	125986	124.540950154161	0.25
8828	126258	124.746768245351	0.75
8828	126381	124.849881958953	0.25
8828	126579	125.048632759857	0.5
8828	126637	125.06280695877	0.75
8828	127112	125.456003095244	0.5
8828	127359	125.662729236372	0.75
8828	127921	126.170653198932	0.375
8828	127931	126.173931383926	0.75
8828	128327	126.556667499822	0.75
8828	128699	126.856768499822	0.625
8828	129440	127.456768499822	0.125
8828	130358	128.266759727003	0.125
8828	130587	128.472122166691	0.875
8828	130610	128.475977720925	1
8828	130876	128.775977720925	0.75
8828	130971	128.880312757577	0.875
8828	131221	129.089154697087	0.875
8828	131556	129.298448626146	0.875
8828	131660	129.385330685681	0.875
8828	131937	129.574851767621	0.25
8828	132236	129.775403669652	0.75
8828	133047	130.375403669652	0.375
8828	133480	130.771304935987	0.125
8828	133541	130.800130862162	0.75
8828	133757	130.979170601303	0.375
8828	134894	131.887788712142	-0.25
8828	135215	132.187788712142	0.75
8829	28	20.000001	0
8829	338	20.400001	0.4
8829	682	20.803540223071	0.4
8829	1018	21.205367126481	0.4
8829	1352	21.508745997841	0.3
8829	1812	21.911184669568	0.4
8829	2300	22.311184669568	0.4
8829	2754	22.611665914939	0.3
8829	2882	22.711210470567	0.3
8829	3243	22.946426504889	0.1
8829	3304	23.019346408912	0.1
8829	3805	23.45336617692	0.5
8829	4563	24.058989077762	0.6
8829	5022	24.458989077762	0.4
8829	5264	24.661401869341	0.2
8829	5772	25.061401869341	0.4
8829	5992	25.261502869341	0.2
8829	6511	25.661502869341	0.4
8829	7182	26.369736387482	0.7
8829	7781	26.938505983929	0.6
8829	7787	26.938605983929	0.3
8829	8287	27.274133146975	0.4
8829	8913	27.774234146975	0.5
8829	9248	28.074234146975	0.3
8829	10022	28.847775801131	0.5
8829	10074	28.876131698315	0.8
8829	10549	29.372899523815	0.2
8829	10565	29.373000523815	0
8829	11405	30.085201556314	0.2
8829	12033	30.673000523815	1.3
8829	12418	30.982765826416	0.3
8829	12697	31.286383932734	0.3
8829	12932	31.486484932734	0.2
8829	14038	32.386484932734	0.9
8829	14671	32.894990235003	0.5
8829	15149	33.205084522246	0.3
8829	15824	33.705084522246	0.5
8829	16116	33.925202596613	0.2
8829	16378	34.125303596613	0.2
8829	16994	34.725303596613	0.6
8829	17487	35.133613765215	0.4
8829	17744	35.334659763426	0.2
8829	17926	35.514439499433	0.3
8829	18042	35.541739310564	0.2
8829	18104	35.619493436729	0.8
8829	18906	36.229284145649	0.6
8829	19778	36.929284145649	0.7
8829	20230	37.333679220097	0.4
8829	20670	37.635742035612	0.5
8829	20977	37.837094804067	0.2
8829	21222	38.037094804067	0.2
8829	21739	38.442134233852	0.4
8829	22216	38.842487708488	0.8
8829	22720	39.242588708488	0.4
8829	23223	39.642588708488	0.4
8829	23575	39.952318068883	0.3
8829	23978	40.261385235768	0.3
8829	24018	40.298880308015	0.6
8829	24331	40.502440541931	0.2
8829	25143	41.100269248457	0.3
8829	25546	41.400269248457	0.3
8829	26088	41.900548462895	0.5
8829	26236	42.01801583212	0.4
8829	26512	42.308144577575	0.4
8829	26779	42.508245577575	0.2
8829	27102	42.808245577575	0.3
8829	27493	43.116201120231	0.3
8829	28179	43.718276263211	0.6
8829	28599	44.049369468323	0.1
8829	29495	44.749369468323	0.7
8829	29707	44.948675224845	0.5
8829	30221	45.348776224845	0.4
8829	30615	45.748776224845	0.4
8829	31035	46.151459330076	0.4
8829	31317	46.458978275307	0.3
8829	32157	47.168387182625	0.4
8829	32497	47.471751708846	1
8829	32598	47.568590990984	0.4
8829	32605	47.573472676933	0.4
8829	32708	47.673573676933	0.1
8829	33861	48.75582465952	0.5
8829	34020	48.873573676933	1.2
8829	34251	49.061686270916	0.3
8829	34571	49.286916479161	0.4
8829	34825	49.485562581279	0.5
8829	35050	49.668105917965	0.6
8829	35689	50.168206917965	0.5
8829	35940	50.368206917965	0.2
8829	36743	51.195971513494	0.8
8829	37530	51.880824657149	0.3
8829	37837	52.081404014668	0.2
8829	38680	52.781404014668	0.7
8829	38923	52.982522430057	0.2
8829	39779	53.782623430057	0.8
8829	41189	54.921755802619	1
8829	41392	55.121755802619	0.2
8829	41676	55.329240719425	0.2
8829	42090	55.729240719425	0.4
8829	42804	56.429749561921	0.7
8829	42806	56.429938552534	0.7
8829	43287	56.833430498662	0.6
8829	43543	57.03495386503	0.6
8829	43986	57.33505486503	0.3
8829	44790	57.93505486503	0.6
8829	45249	58.345104690311	0.4
8829	45628	58.647416757969	0.3
8829	45816	58.847699064253	0.2
8829	45965	58.952733404192	0.1
8829	46523	59.352733404192	0.4
8829	46801	59.556962558774	0.2
8829	47632	60.274991110211	0.8
8829	48010	60.579630096765	0.3
8829	48236	60.779630096765	0.2
8829	48490	60.982931019531	0.2
8829	48620	61.097682069195	0.2
8829	48967	61.386168608688	0.4
8829	49244	61.594417913712	0.2
8829	49597	61.894417913712	0.3
8829	50232	62.39780049411	0.5
8829	50501	62.598959925518	0.2
8829	51601	63.599060925518	1
8829	52609	64.499060925518	0.9
8829	53051	64.807348615683	0.3
8829	53620	65.20952163774	0.4
8829	53723	65.295469352972	1
8829	53910	65.41193039308	0.4
8829	54531	66.014288931468	0.6
8829	55958	67.215362890163	0.7
8829	57273	68.325559672008	0.2
8829	57948	68.825660672008	0.5
8829	58342	69.125660672008	0.3
8829	59501	70.035125382334	0.9
8829	59824	70.335125382334	0.3
8829	60083	70.536010711871	0.2
8829	61224	71.437022822477	0.9
8829	62406	72.437022822477	1
8829	63015	72.941031972161	0.5
8829	63032	72.945868243612	0
8829	64494	73.945868243612	1
8829	64870	74.253919291002	0.3
8829	65172	74.555886814812	0.3
8829	67803	76.456731566868	1.9
8829	68024	76.656731566868	0.2
8829	68589	77.167497283547	0.5
8829	68883	77.373154502294	0.2
8829	69228	77.673154502294	0.3
8829	70161	78.388345476994	0.7
8829	70846	78.880450370856	1.2
8829	71112	79.081001175192	0.2
8829	71212	79.169872114049	0.2
8829	71260	79.210815682499	0.8
8829	71667	79.514154781793	0.3
8829	72395	80.214154781793	0.7
8829	73094	80.823306237986	0.6