version 2
run Stability-28-20130528-00:51:55-21385
attr configname Stability
attr datetime 20130528-00:51:55
attr experiment Stability
attr inifile omnetpp.ini
attr iterationvars $0=1e4
attr iterationvars2 "$0=1e4, $repetition=8"
attr measurement $0=1e4
attr network Network
attr processid 21385
attr repetition 8
attr replication #8
attr resultdir results
attr runnumber 28
attr seedset 28

vector 2812  Network.churner  inGoingSizeSig:vector  ETV
vector 2716  Network.dyn_peer[0]  lookupHopsSig:vector  ETV
vector 2717  Network.dyn_peer[0]  lookupStabilitySig:vector  ETV
vector 2718  Network.dyn_peer[0]  lookupTimeSig:vector  ETV
vector 2719  Network.dyn_peer[1]  lookupHopsSig:vector  ETV
vector 2720  Network.dyn_peer[1]  lookupStabilitySig:vector  ETV
vector 2721  Network.dyn_peer[1]  lookupTimeSig:vector  ETV
vector 2722  Network.dyn_peer[2]  lookupHopsSig:vector  ETV
vector 2723  Network.dyn_peer[2]  lookupStabilitySig:vector  ETV
vector 2724  Network.dyn_peer[2]  lookupTimeSig:vector  ETV
vector 2725  Network.dyn_peer[3]  lookupHopsSig:vector  ETV
vector 2726  Network.dyn_peer[3]  lookupStabilitySig:vector  ETV
vector 2727  Network.dyn_peer[3]  lookupTimeSig:vector  ETV
vector 2728  Network.dyn_peer[4]  lookupHopsSig:vector  ETV
vector 2729  Network.dyn_peer[4]  lookupStabilitySig:vector  ETV
vector 2730  Network.dyn_peer[4]  lookupTimeSig:vector  ETV
vector 2731  Network.dyn_peer[5]  lookupHopsSig:vector  ETV
vector 2732  Network.dyn_peer[5]  lookupStabilitySig:vector  ETV
vector 2733  Network.dyn_peer[5]  lookupTimeSig:vector  ETV
vector 2734  Network.dyn_peer[6]  lookupHopsSig:vector  ETV
vector 2735  Network.dyn_peer[6]  lookupStabilitySig:vector  ETV
vector 2736  Network.dyn_peer[6]  lookupTimeSig:vector  ETV
vector 2737  Network.dyn_peer[7]  lookupHopsSig:vector  ETV
vector 2738  Network.dyn_peer[7]  lookupStabilitySig:vector  ETV
vector 2739  Network.dyn_peer[7]  lookupTimeSig:vector  ETV
vector 2740  Network.dyn_peer[8]  lookupHopsSig:vector  ETV
vector 2741  Network.dyn_peer[8]  lookupStabilitySig:vector  ETV
vector 2742  Network.dyn_peer[8]  lookupTimeSig:vector  ETV
vector 2743  Network.dyn_peer[9]  lookupHopsSig:vector  ETV
vector 2744  Network.dyn_peer[9]  lookupStabilitySig:vector  ETV
vector 2745  Network.dyn_peer[9]  lookupTimeSig:vector  ETV
vector 2746  Network.dyn_peer[10]  lookupHopsSig:vector  ETV
vector 2747  Network.dyn_peer[10]  lookupStabilitySig:vector  ETV
vector 2748  Network.dyn_peer[10]  lookupTimeSig:vector  ETV
vector 2749  Network.dyn_peer[11]  lookupHopsSig:vector  ETV
vector 2750  Network.dyn_peer[11]  lookupStabilitySig:vector  ETV
vector 2751  Network.dyn_peer[11]  lookupTimeSig:vector  ETV
vector 2752  Network.dyn_peer[12]  lookupHopsSig:vector  ETV
vector 2753  Network.dyn_peer[12]  lookupStabilitySig:vector  ETV
vector 2754  Network.dyn_peer[12]  lookupTimeSig:vector  ETV
vector 2755  Network.dyn_peer[13]  lookupHopsSig:vector  ETV
vector 2756  Network.dyn_peer[13]  lookupStabilitySig:vector  ETV
vector 2757  Network.dyn_peer[13]  lookupTimeSig:vector  ETV
vector 2758  Network.dyn_peer[14]  lookupHopsSig:vector  ETV
vector 2759  Network.dyn_peer[14]  lookupStabilitySig:vector  ETV
vector 2760  Network.dyn_peer[14]  lookupTimeSig:vector  ETV
vector 2761  Network.dyn_peer[15]  lookupHopsSig:vector  ETV
vector 2762  Network.dyn_peer[15]  lookupStabilitySig:vector  ETV
vector 2763  Network.dyn_peer[15]  lookupTimeSig:vector  ETV
vector 2764  Network.dyn_peer[16]  lookupHopsSig:vector  ETV
vector 2765  Network.dyn_peer[16]  lookupStabilitySig:vector  ETV
vector 2766  Network.dyn_peer[16]  lookupTimeSig:vector  ETV
vector 2767  Network.dyn_peer[17]  lookupHopsSig:vector  ETV
vector 2768  Network.dyn_peer[17]  lookupStabilitySig:vector  ETV
vector 2769  Network.dyn_peer[17]  lookupTimeSig:vector  ETV
vector 2770  Network.dyn_peer[18]  lookupHopsSig:vector  ETV
vector 2771  Network.dyn_peer[18]  lookupStabilitySig:vector  ETV
vector 2772  Network.dyn_peer[18]  lookupTimeSig:vector  ETV
vector 2773  Network.dyn_peer[19]  lookupHopsSig:vector  ETV
vector 2774  Network.dyn_peer[19]  lookupStabilitySig:vector  ETV
vector 2775  Network.dyn_peer[19]  lookupTimeSig:vector  ETV
vector 2776  Network.dyn_peer[20]  lookupHopsSig:vector  ETV
vector 2777  Network.dyn_peer[20]  lookupStabilitySig:vector  ETV
vector 2778  Network.dyn_peer[20]  lookupTimeSig:vector  ETV
vector 2779  Network.dyn_peer[21]  lookupHopsSig:vector  ETV
vector 2780  Network.dyn_peer[21]  lookupStabilitySig:vector  ETV
vector 2781  Network.dyn_peer[21]  lookupTimeSig:vector  ETV
vector 2782  Network.dyn_peer[22]  lookupHopsSig:vector  ETV
vector 2783  Network.dyn_peer[22]  lookupStabilitySig:vector  ETV
vector 2784  Network.dyn_peer[22]  lookupTimeSig:vector  ETV
vector 2785  Network.dyn_peer[23]  lookupHopsSig:vector  ETV
vector 2786  Network.dyn_peer[23]  lookupStabilitySig:vector  ETV
vector 2787  Network.dyn_peer[23]  lookupTimeSig:vector  ETV
vector 2788  Network.dyn_peer[24]  lookupHopsSig:vector  ETV
vector 2789  Network.dyn_peer[24]  lookupStabilitySig:vector  ETV
vector 2790  Network.dyn_peer[24]  lookupTimeSig:vector  ETV
vector 2791  Network.dyn_peer[25]  lookupHopsSig:vector  ETV
vector 2792  Network.dyn_peer[25]  lookupStabilitySig:vector  ETV
vector 2793  Network.dyn_peer[25]  lookupTimeSig:vector  ETV
vector 2794  Network.dyn_peer[26]  lookupHopsSig:vector  ETV
vector 2795  Network.dyn_peer[26]  lookupStabilitySig:vector  ETV
vector 2796  Network.dyn_peer[26]  lookupTimeSig:vector  ETV
vector 2797  Network.dyn_peer[27]  lookupHopsSig:vector  ETV
vector 2798  Network.dyn_peer[27]  lookupStabilitySig:vector  ETV
vector 2799  Network.dyn_peer[27]  lookupTimeSig:vector  ETV
vector 2800  Network.dyn_peer[28]  lookupHopsSig:vector  ETV
vector 2801  Network.dyn_peer[28]  lookupStabilitySig:vector  ETV
vector 2802  Network.dyn_peer[28]  lookupTimeSig:vector  ETV
vector 2803  Network.dyn_peer[29]  lookupHopsSig:vector  ETV
vector 2804  Network.dyn_peer[29]  lookupStabilitySig:vector  ETV
vector 2805  Network.dyn_peer[29]  lookupTimeSig:vector  ETV
vector 2806  Network.dyn_peer[30]  lookupHopsSig:vector  ETV
vector 2807  Network.dyn_peer[30]  lookupStabilitySig:vector  ETV
vector 2808  Network.dyn_peer[30]  lookupTimeSig:vector  ETV
vector 2809  Network.dyn_peer[31]  lookupHopsSig:vector  ETV
vector 2810  Network.dyn_peer[31]  lookupStabilitySig:vector  ETV
vector 2811  Network.dyn_peer[31]  lookupTimeSig:vector  ETV
2716	31	30.1	1
2716	35	30.4	2
2716	39	30.609532019468	1
2716	43	30.817270335066	1
2716	1056	350.2	2
2716	1059	350.4	1
2716	1064	350.609454816807	1
2716	1071	350.829071728065	1
2716	2099	670.1	1
2716	2102	670.3	1
2716	2107	670.509727577292	1
2716	2111	670.717043100467	1
2716	3160	990.1	1
2716	3164	990.4	2
2716	3168	990.604392123636	1
2716	3173	990.809658218262	1
2716	4243	1310.1	1
2716	4247	1310.4	2
2716	4253	1310.70874452589	2
2716	4257	1310.911786774268	1
2716	5271	1630.2	2
2716	5275	1630.5	2
2716	5283	1630.721679830361	1
2716	5291	1630.948688950183	1
2716	6323	1950.2	2
2716	6329	1950.512151782905	2
2716	6333	1950.715050895056	1
2716	6338	1950.93028290098	1
2716	7359	2270.2	2
2716	7363	2270.5	2
2716	7367	2270.707430059395	1
2716	7373	2270.927270623129	1
2716	8358	2590.2	2
2716	8362	2590.5	2
2716	8366	2590.709825078172	1
2716	8372	2590.924657654681	1
2716	9400	2910.2	2
2716	9404	2910.5	2
2716	9408	2910.704111643326	1
2716	9414	2911.007659444521	2
2716	10417	3230.2	2
2716	10420	3230.4	1
2716	10425	3230.613270803267	1
2716	10431	3230.920111002183	2
2716	11438	3550.1	1
2716	11442	3550.4	2
2716	11448	3550.622678948214	1
2716	11452	3550.829228388752	1
2716	12459	3870.1	1
2716	12462	3870.3	1
2716	12466	3870.504991877281	1
2716	12477	3870.825976233365	2
2716	13522	4190.1	1
2716	13525	4190.3	1
2716	13530	4190.609842535261	2
2716	13534	4190.815810383259	1
2716	14574	4510.1	1
2716	14577	4510.3	1
2716	14581	4510.509218391834	1
2716	14588	4510.730457354805	1
2716	15631	4830	0
2716	15634	4830.2	1
2716	15638	4830.404806567146	1
2716	15642	4830.61259197446	1
2716	16659	5150.1	1
2716	16662	5150.3	1
2716	16668	5150.610541141027	2
2716	16673	5150.918929157805	2
2716	17699	5470.1	1
2716	17703	5470.4	2
2716	17707	5470.605793295167	1
2716	17712	5470.814549461736	1
2716	18741	5790.1	1
2716	18745	5790.4	2
2716	18750	5790.709404346095	2
2716	18754	5790.913965597196	1
2716	19757	6110.1	1
2716	19761	6110.309727896898	1
2716	19767	6110.614209943365	2
2716	19774	6110.828133485255	1
2716	20803	6430.1	1
2716	20806	6430.3	1
2716	20811	6430.6045720815	2
2716	20820	6430.836649512547	1
2716	21857	6750.1	1
2716	21861	6750.4	2
2716	21865	6750.601044751668	1
2716	21870	6750.807791733349	1
2716	22900	7070.2	2
2716	22903	7070.4	1
2716	22911	7070.713808270127	2
2716	22919	7070.926848468389	1
2716	23914	7390.1	1
2716	23919	7390.301753507242	1
2716	23924	7390.51274131585	1
2716	23929	7390.724136665617	1
2716	25000	7710.1	1
2716	25004	7710.4	2
2716	25008	7710.600388275473	1
2716	25013	7710.803719687044	1
2716	26058	8030.1	1
2716	26062	8030.307921851102	1
2716	26066	8030.508943810506	1
2716	26071	8030.812954073067	2
2716	27106	8350	0
2716	27110	8350.3	2
2716	27121	8350.547040803676	1
2716	27127	8350.85562474133	2
2716	28146	8670.1	1
2716	28149	8670.3	1
2716	28154	8670.608356268447	2
2716	28159	8670.917543118406	2
2716	29181	8990.1	1
2716	29185	8990.4	2
2716	29190	8990.611381743454	1
2716	29194	8990.816924947892	1
2716	30290	9310.2	2
2716	30294	9310.409389438014	1
2716	30299	9310.715362998723	2
2716	30303	9310.91985154924	1
2716	31327	9630.2	2
2716	31331	9630.5	2
2716	31335	9630.70014834444	1
2716	31340	9631.000336561724	2
2716	32345	9950.1	1
2716	32348	9950.3	1
2716	32356	9950.529390664115	1
2716	32361	9950.740782891742	1
2716	33376	10270.2	2
2716	33379	10270.4	1
2716	33385	10270.614960622517	1
2716	33389	10270.82451223019	1
2716	34421	10590.2	2
2716	34425	10590.409910019948	1
2716	34430	10590.623815172072	1
2716	34436	10590.932326784449	2
2716	35459	10910.1	1
2716	35462	10910.3	1
2716	35468	10910.608546756854	2
2716	35473	10910.814672355659	1
2716	36475	11230.1	1
2716	36479	11230.4	2
2716	36484	11230.706136481699	2
2716	36488	11230.908637986436	1
2716	37536	11550.1	1
2716	37539	11550.3	1
2716	37547	11550.528330399771	1
2716	37552	11550.738175441277	1
2716	38577	11870.1	1
2716	38580	11870.3	1
2716	38585	11870.60530380384	2
2716	38590	11870.909248448872	2
2716	39609	12190	0
2716	39613	12190.3	2
2716	39618	12190.606375950048	2
2716	39623	12190.818924196068	1
2716	40647	12510.2	2
2716	40650	12510.4	1
2716	40655	12510.703291552297	2
2716	40659	12510.910612510421	1
2716	41659	12830.1	1
2716	41663	12830.4	2
2716	41668	12830.705155702673	2
2716	41673	12830.922401220967	1
2716	42681	13150.1	1
2716	42686	13150.40895500441	2
2716	42690	13150.61880112524	1
2716	42696	13150.82618102635	1
2716	43733	13470.1	1
2716	43737	13470.4	2
2716	43741	13470.603544880747	1
2716	43748	13470.830131791613	1
2716	44744	13790.2	2
2716	44747	13790.4	1
2716	44756	13790.726304717506	2
2716	44763	13790.944247792691	1
2716	45778	14110.2	2
2716	45782	14110.5	2
2716	45787	14110.803494249994	2
2716	45792	14111.111219439627	2
2716	46811	14430.2	2
2716	46815	14430.5	2
2716	46820	14430.80723804681	2
2716	46825	14431.109566111477	2
2716	47829	14750.1	1
2716	47832	14750.3	1
2716	47841	14750.610347910728	2
2716	47851	14750.931458675427	2
2716	48882	15070.2	2
2716	48885	15070.4	1
2716	48891	15070.709036289024	2
2716	48896	15070.919316673279	1
2716	49986	15390.2	2
2716	49990	15390.5	2
2716	49994	15390.701357508674	1
2716	50003	15390.935695696903	1
2716	51021	15710	0
2716	51025	15710.3	2
2716	51031	15710.512874310285	1
2716	51039	15710.836967876084	2
2716	52085	16030.2	2
2716	52090	16030.50635249532	2
2716	52097	16030.825381473073	2
2716	52101	16031.028417587748	1
2716	53114	16350.1	1
2716	53117	16350.3	1
2716	53122	16350.606627634982	2
2716	53129	16350.822407892943	1
2716	54164	16670.1	1
2716	54168	16670.4	2
2716	54172	16670.60634126432	1
2716	54176	16670.810068089917	1
2716	55169	16990.1	1
2716	55175	16990.412155820482	2
2716	55182	16990.731079822925	2
2716	55187	16990.935318123092	1
2716	56203	17310.1	1
2716	56207	17310.4	2
2716	56211	17310.600065989552	1
2716	56216	17310.811350399988	1
2716	57228	17630.1	1
2716	57231	17630.3	1
2716	57235	17630.501547907765	1
2716	57240	17630.706457274276	1
2716	58252	17950.2	2
2716	58255	17950.4	1
2716	58260	17950.709134197831	2
2716	58267	17951.024674091335	2
2716	59302	18270.1	1
2716	59306	18270.30335834081	1
2716	59311	18270.607129124504	2
2716	59315	18270.80713200222	1
2716	60330	18590	0
2716	60333	18590.2	1
2716	60338	18590.414706045784	1
2716	60347	18590.632865973505	1
2716	61365	18910.1	1
2716	61368	18910.3	1
2716	61373	18910.512633545836	1
2716	61377	18910.719289144041	1
2716	62398	19230	0
2716	62401	19230.2	1
2716	62406	19230.40041702287	1
2716	62416	19230.735320119579	2
2716	63428	19550	0
2716	63432	19550.3	2
2716	63437	19550.603117263349	2
2716	63441	19550.811436324684	1
2716	64505	19870.1	1
2716	64509	19870.300028734246	1
2716	64513	19870.503968081576	1
2716	64518	19870.71067681629	1
2716	65539	20190.2	2
2716	65545	20190.516485730632	2
2716	65549	20190.720919180345	1
2716	65555	20190.927390440547	1
2717	31	30.1	0.875
2717	35	30.4	0.75
2717	39	30.609532019468	0.875
2717	43	30.817270335066	0.875
2717	1056	350.2	0.75
2717	1059	350.4	0.875
2717	1064	350.609454816807	0.875
2717	1071	350.829071728065	0.875
2717	2099	670.1	0.875
2717	2102	670.3	0.875
2717	2107	670.509727577292	0.875
2717	2111	670.717043100467	0.875
2717	3160	990.1	0.875
2717	3164	990.4	0.75
2717	3168	990.604392123636	0.875
2717	3173	990.809658218262	0.875
2717	4243	1310.1	0.875
2717	4247	1310.4	0.75
2717	4253	1310.70874452589	0.75
2717	4257	1310.911786774268	0.875
2717	5271	1630.2	0.75
2717	5275	1630.5	0.75
2717	5283	1630.721679830361	0.875
2717	5291	1630.948688950183	0.875
2717	6323	1950.2	0.75
2717	6329	1950.512151782905	0.75
2717	6333	1950.715050895056	0.875
2717	6338	1950.93028290098	0.875
2717	7359	2270.2	0.75
2717	7363	2270.5	0.75
2717	7367	2270.707430059395	0.875
2717	7373	2270.927270623129	0.875
2717	8358	2590.2	0.75
2717	8362	2590.5	0.75
2717	8366	2590.709825078172	0.875
2717	8372	2590.924657654681	0.875
2717	9400	2910.2	0.75
2717	9404	2910.5	0.75
2717	9408	2910.704111643326	0.875
2717	9414	2911.007659444521	0.75
2717	10417	3230.2	0.75
2717	10420	3230.4	0.875
2717	10425	3230.613270803267	0.875
2717	10431	3230.920111002183	0.75
2717	11438	3550.1	0.875
2717	11442	3550.4	0.75
2717	11448	3550.622678948214	0.875
2717	11452	3550.829228388752	0.875
2717	12459	3870.1	0.875
2717	12462	3870.3	0.875
2717	12466	3870.504991877281	0.875
2717	12477	3870.825976233365	0.75
2717	13522	4190.1	0.875
2717	13525	4190.3	0.875
2717	13530	4190.609842535261	0.75
2717	13534	4190.815810383259	0.875
2717	14574	4510.1	0.875
2717	14577	4510.3	0.875
2717	14581	4510.509218391834	0.875
2717	14588	4510.730457354805	0.875
2717	15631	4830	1
2717	15634	4830.2	0.875
2717	15638	4830.404806567146	0.875
2717	15642	4830.61259197446	0.875
2717	16659	5150.1	0.875
2717	16662	5150.3	0.875
2717	16668	5150.610541141027	0.75
2717	16673	5150.918929157805	0.75
2717	17699	5470.1	0.875
2717	17703	5470.4	0.75
2717	17707	5470.605793295167	0.875
2717	17712	5470.814549461736	0.875
2717	18741	5790.1	0.875
2717	18745	5790.4	0.75
2717	18750	5790.709404346095	0.75
2717	18754	5790.913965597196	0.875
2717	19757	6110.1	0.875
2717	19761	6110.309727896898	0.875
2717	19767	6110.614209943365	0.75
2717	19774	6110.828133485255	0.875
2717	20803	6430.1	0.875
2717	20806	6430.3	0.875
2717	20811	6430.6045720815	0.75
2717	20820	6430.836649512547	0.875
2717	21857	6750.1	0.875
2717	21861	6750.4	0.75
2717	21865	6750.601044751668	0.875
2717	21870	6750.807791733349	0.875
2717	22900	7070.2	0.75
2717	22903	7070.4	0.875
2717	22911	7070.713808270127	0.75
2717	22919	7070.926848468389	0.875
2717	23914	7390.1	0.875
2717	23919	7390.301753507242	0.875
2717	23924	7390.51274131585	0.875
2717	23929	7390.724136665617	0.875
2717	25000	7710.1	0.875
2717	25004	7710.4	0.75
2717	25008	7710.600388275473	0.875
2717	25013	7710.803719687044	0.875
2717	26058	8030.1	0.875
2717	26062	8030.307921851102	0.875
2717	26066	8030.508943810506	0.875
2717	26071	8030.812954073067	0.75
2717	27106	8350	1
2717	27110	8350.3	0.75
2717	27121	8350.547040803676	0.875
2717	27127	8350.85562474133	0.75
2717	28146	8670.1	0.875
2717	28149	8670.3	0.875
2717	28154	8670.608356268447	0.75
2717	28159	8670.917543118406	0.75
2717	29181	8990.1	0.875
2717	29185	8990.4	0.75
2717	29190	8990.611381743454	0.875
2717	29194	8990.816924947892	0.875
2717	30290	9310.2	0.75
2717	30294	9310.409389438014	0.875
2717	30299	9310.715362998723	0.75
2717	30303	9310.91985154924	0.875
2717	31327	9630.2	0.75
2717	31331	9630.5	0.75
2717	31335	9630.70014834444	0.875
2717	31340	9631.000336561724	0.75
2717	32345	9950.1	0.875
2717	32348	9950.3	0.875
2717	32356	9950.529390664115	0.875
2717	32361	9950.740782891742	0.875
2717	33376	10270.2	0.75
2717	33379	10270.4	0.875
2717	33385	10270.614960622517	0.875
2717	33389	10270.82451223019	0.875
2717	34421	10590.2	0.75
2717	34425	10590.409910019948	0.875
2717	34430	10590.623815172072	0.875
2717	34436	10590.932326784449	0.75
2717	35459	10910.1	0.875
2717	35462	10910.3	0.875
2717	35468	10910.608546756854	0.75
2717	35473	10910.814672355659	0.875
2717	36475	11230.1	0.875
2717	36479	11230.4	0.75
2717	36484	11230.706136481699	0.75
2717	36488	11230.908637986436	0.875
2717	37536	11550.1	0.875
2717	37539	11550.3	0.875
2717	37547	11550.528330399771	0.875
2717	37552	11550.738175441277	0.875
2717	38577	11870.1	0.875
2717	38580	11870.3	0.875
2717	38585	11870.60530380384	0.75
2717	38590	11870.909248448872	0.75
2717	39609	12190	1
2717	39613	12190.3	0.75
2717	39618	12190.606375950048	0.75
2717	39623	12190.818924196068	0.875
2717	40647	12510.2	0.75
2717	40650	12510.4	0.875
2717	40655	12510.703291552297	0.75
2717	40659	12510.910612510421	0.875
2717	41659	12830.1	0.875
2717	41663	12830.4	0.75
2717	41668	12830.705155702673	0.75
2717	41673	12830.922401220967	0.875
2717	42681	13150.1	0.875
2717	42686	13150.40895500441	0.75
2717	42690	13150.61880112524	0.875
2717	42696	13150.82618102635	0.875
2717	43733	13470.1	0.875
2717	43737	13470.4	0.75
2717	43741	13470.603544880747	0.875
2717	43748	13470.830131791613	0.875
2717	44744	13790.2	0.75
2717	44747	13790.4	0.875
2717	44756	13790.726304717506	0.75
2717	44763	13790.944247792691	0.875
2717	45778	14110.2	0.75
2717	45782	14110.5	0.75
2717	45787	14110.803494249994	0.75
2717	45792	14111.111219439627	0.75
2717	46811	14430.2	0.75
2717	46815	14430.5	0.75
2717	46820	14430.80723804681	0.75
2717	46825	14431.109566111477	0.75
2717	47829	14750.1	0.875
2717	47832	14750.3	0.875
2717	47841	14750.610347910728	0.75
2717	47851	14750.931458675427	0.75
2717	48882	15070.2	0.75
2717	48885	15070.4	0.875
2717	48891	15070.709036289024	0.75
2717	48896	15070.919316673279	0.875
2717	49986	15390.2	0.75
2717	49990	15390.5	0.75
2717	49994	15390.701357508674	0.875
2717	50003	15390.935695696903	0.875
2717	51021	15710	1
2717	51025	15710.3	0.75
2717	51031	15710.512874310285	0.875
2717	51039	15710.836967876084	0.75
2717	52085	16030.2	0.75
2717	52090	16030.50635249532	0.75
2717	52097	16030.825381473073	0.75
2717	52101	16031.028417587748	0.875
2717	53114	16350.1	0.875
2717	53117	16350.3	0.875
2717	53122	16350.606627634982	0.75
2717	53129	16350.822407892943	0.875
2717	54164	16670.1	0.875
2717	54168	16670.4	0.75
2717	54172	16670.60634126432	0.875
2717	54176	16670.810068089917	0.875
2717	55169	16990.1	0.875
2717	55175	16990.412155820482	0.75
2717	55182	16990.731079822925	0.75
2717	55187	16990.935318123092	0.875
2717	56203	17310.1	0.875
2717	56207	17310.4	0.75
2717	56211	17310.600065989552	0.875
2717	56216	17310.811350399988	0.875
2717	57228	17630.1	0.875
2717	57231	17630.3	0.875
2717	57235	17630.501547907765	0.875
2717	57240	17630.706457274276	0.875
2717	58252	17950.2	0.75
2717	58255	17950.4	0.875
2717	58260	17950.709134197831	0.75
2717	58267	17951.024674091335	0.75
2717	59302	18270.1	0.875
2717	59306	18270.30335834081	0.875
2717	59311	18270.607129124504	0.75
2717	59315	18270.80713200222	0.875
2717	60330	18590	1
2717	60333	18590.2	0.875
2717	60338	18590.414706045784	0.875
2717	60347	18590.632865973505	0.875
2717	61365	18910.1	0.875
2717	61368	18910.3	0.875
2717	61373	18910.512633545836	0.875
2717	61377	18910.719289144041	0.875
2717	62398	19230	1
2717	62401	19230.2	0.875
2717	62406	19230.40041702287	0.875
2717	62416	19230.735320119579	0.75
2717	63428	19550	1
2717	63432	19550.3	0.75
2717	63437	19550.603117263349	0.75
2717	63441	19550.811436324684	0.875
2717	64505	19870.1	0.875
2717	64509	19870.300028734246	0.875
2717	64513	19870.503968081576	0.875
2717	64518	19870.71067681629	0.875
2717	65539	20190.2	0.75
2717	65545	20190.516485730632	0.75
2717	65549	20190.720919180345	0.875
2717	65555	20190.927390440547	0.875
2718	31	30.1	0.1
2718	35	30.4	0.3
2718	39	30.609532019468	0.2
2718	43	30.817270335066	0.2
2718	1056	350.2	0.2
2718	1059	350.4	0.2
2718	1064	350.609454816807	0.2
2718	1071	350.829071728065	0.2
2718	2099	670.1	0.1
2718	2102	670.3	0.2
2718	2107	670.509727577292	0.2
2718	2111	670.717043100467	0.2
2718	3160	990.1	0.1
2718	3164	990.4	0.3
2718	3168	990.604392123636	0.2
2718	3173	990.809658218262	0.2
2718	4243	1310.1	0.1
2718	4247	1310.4	0.3
2718	4253	1310.70874452589	0.3
2718	4257	1310.911786774268	0.2
2718	5271	1630.2	0.2
2718	5275	1630.5	0.3
2718	5283	1630.721679830361	0.2
2718	5291	1630.948688950183	0.2
2718	6323	1950.2	0.2
2718	6329	1950.512151782905	0.3
2718	6333	1950.715050895056	0.2
2718	6338	1950.93028290098	0.2
2718	7359	2270.2	0.2
2718	7363	2270.5	0.3
2718	7367	2270.707430059395	0.2
2718	7373	2270.927270623129	0.2
2718	8358	2590.2	0.2
2718	8362	2590.5	0.3
2718	8366	2590.709825078172	0.2
2718	8372	2590.924657654681	0.2
2718	9400	2910.2	0.2
2718	9404	2910.5	0.3
2718	9408	2910.704111643326	0.2
2718	9414	2911.007659444521	0.3
2718	10417	3230.2	0.2
2718	10420	3230.4	0.2
2718	10425	3230.613270803267	0.2
2718	10431	3230.920111002183	0.3
2718	11438	3550.1	0.1
2718	11442	3550.4	0.3
2718	11448	3550.622678948214	0.2
2718	11452	3550.829228388752	0.2
2718	12459	3870.1	0.1
2718	12462	3870.3	0.2
2718	12466	3870.504991877281	0.2
2718	12477	3870.825976233365	0.3
2718	13522	4190.1	0.1
2718	13525	4190.3	0.2
2718	13530	4190.609842535261	0.3
2718	13534	4190.815810383259	0.2
2718	14574	4510.1	0.1
2718	14577	4510.3	0.2
2718	14581	4510.509218391834	0.2
2718	14588	4510.730457354805	0.2
2718	15631	4830	0
2718	15634	4830.2	0.2
2718	15638	4830.404806567146	0.2
2718	15642	4830.61259197446	0.2
2718	16659	5150.1	0.1
2718	16662	5150.3	0.2
2718	16668	5150.610541141027	0.3
2718	16673	5150.918929157805	0.3
2718	17699	5470.1	0.1
2718	17703	5470.4	0.3
2718	17707	5470.605793295167	0.2
2718	17712	5470.814549461736	0.2
2718	18741	5790.1	0.1
2718	18745	5790.4	0.3
2718	18750	5790.709404346095	0.3
2718	18754	5790.913965597196	0.2
2718	19757	6110.1	0.1
2718	19761	6110.309727896898	0.2
2718	19767	6110.614209943365	0.3
2718	19774	6110.828133485255	0.2
2718	20803	6430.1	0.1
2718	20806	6430.3	0.2
2718	20811	6430.6045720815	0.3
2718	20820	6430.836649512547	0.2
2718	21857	6750.1	0.1
2718	21861	6750.4	0.3
2718	21865	6750.601044751668	0.2
2718	21870	6750.807791733349	0.2
2718	22900	7070.2	0.2
2718	22903	7070.4	0.2
2718	22911	7070.713808270127	0.3
2718	22919	7070.926848468389	0.2
2718	23914	7390.1	0.1
2718	23919	7390.301753507242	0.2
2718	23924	7390.51274131585	0.2
2718	23929	7390.724136665617	0.2
2718	25000	7710.1	0.1
2718	25004	7710.4	0.3
2718	25008	7710.600388275473	0.2
2718	25013	7710.803719687044	0.2
2718	26058	8030.1	0.1
2718	26062	8030.307921851102	0.2
2718	26066	8030.508943810506	0.2
2718	26071	8030.812954073067	0.3
2718	27106	8350	0
2718	27110	8350.3	0.3
2718	27121	8350.547040803676	0.2
2718	27127	8350.85562474133	0.3
2718	28146	8670.1	0.1
2718	28149	8670.3	0.2
2718	28154	8670.608356268447	0.3
2718	28159	8670.917543118406	0.3
2718	29181	8990.1	0.1
2718	29185	8990.4	0.3
2718	29190	8990.611381743454	0.2
2718	29194	8990.816924947892	0.2
2718	30290	9310.2	0.2
2718	30294	9310.409389438014	0.2
2718	30299	9310.715362998723	0.3
2718	30303	9310.91985154924	0.2
2718	31327	9630.2	0.2
2718	31331	9630.5	0.3
2718	31335	9630.70014834444	0.2
2718	31340	9631.000336561724	0.3
2718	32345	9950.1	0.1
2718	32348	9950.3	0.2
2718	32356	9950.529390664115	0.2
2718	32361	9950.740782891742	0.2
2718	33376	10270.2	0.2
2718	33379	10270.4	0.2
2718	33385	10270.614960622517	0.2
2718	33389	10270.82451223019	0.2
2718	34421	10590.2	0.2
2718	34425	10590.409910019948	0.2
2718	34430	10590.623815172072	0.2
2718	34436	10590.932326784449	0.3
2718	35459	10910.1	0.1
2718	35462	10910.3	0.2
2718	35468	10910.608546756854	0.3
2718	35473	10910.814672355659	0.2
2718	36475	11230.1	0.1
2718	36479	11230.4	0.3
2718	36484	11230.706136481699	0.3
2718	36488	11230.908637986436	0.2
2718	37536	11550.1	0.1
2718	37539	11550.3	0.2
2718	37547	11550.528330399771	0.2
2718	37552	11550.738175441277	0.2
2718	38577	11870.1	0.1
2718	38580	11870.3	0.2
2718	38585	11870.60530380384	0.3
2718	38590	11870.909248448872	0.3
2718	39609	12190	0
2718	39613	12190.3	0.3
2718	39618	12190.606375950048	0.3
2718	39623	12190.818924196068	0.2
2718	40647	12510.2	0.2
2718	40650	12510.4	0.2
2718	40655	12510.703291552297	0.3
2718	40659	12510.910612510421	0.2
2718	41659	12830.1	0.1
2718	41663	12830.4	0.3
2718	41668	12830.705155702673	0.3
2718	41673	12830.922401220967	0.2
2718	42681	13150.1	0.1
2718	42686	13150.40895500441	0.3
2718	42690	13150.61880112524	0.2
2718	42696	13150.82618102635	0.2
2718	43733	13470.1	0.1
2718	43737	13470.4	0.3
2718	43741	13470.603544880747	0.2
2718	43748	13470.830131791613	0.2
2718	44744	13790.2	0.2
2718	44747	13790.4	0.2
2718	44756	13790.726304717506	0.3
2718	44763	13790.944247792691	0.2
2718	45778	14110.2	0.2
2718	45782	14110.5	0.3
2718	45787	14110.803494249994	0.3
2718	45792	14111.111219439627	0.3
2718	46811	14430.2	0.2
2718	46815	14430.5	0.3
2718	46820	14430.80723804681	0.3
2718	46825	14431.109566111477	0.3
2718	47829	14750.1	0.1
2718	47832	14750.3	0.2
2718	47841	14750.610347910728	0.3
2718	47851	14750.931458675427	0.3
2718	48882	15070.2	0.2
2718	48885	15070.4	0.2
2718	48891	15070.709036289024	0.3
2718	48896	15070.919316673279	0.2
2718	49986	15390.2	0.2
2718	49990	15390.5	0.3
2718	49994	15390.701357508674	0.2
2718	50003	15390.935695696903	0.2
2718	51021	15710	0
2718	51025	15710.3	0.3
2718	51031	15710.512874310285	0.2
2718	51039	15710.836967876084	0.3
2718	52085	16030.2	0.2
2718	52090	16030.50635249532	0.3
2718	52097	16030.825381473073	0.3
2718	52101	16031.028417587748	0.2
2718	53114	16350.1	0.1
2718	53117	16350.3	0.2
2718	53122	16350.606627634982	0.3
2718	53129	16350.822407892943	0.2
2718	54164	16670.1	0.1
2718	54168	16670.4	0.3
2718	54172	16670.60634126432	0.2
2718	54176	16670.810068089917	0.2
2718	55169	16990.1	0.1
2718	55175	16990.412155820482	0.3
2718	55182	16990.731079822925	0.3
2718	55187	16990.935318123092	0.2
2718	56203	17310.1	0.1
2718	56207	17310.4	0.3
2718	56211	17310.600065989552	0.2
2718	56216	17310.811350399988	0.2
2718	57228	17630.1	0.1
2718	57231	17630.3	0.2
2718	57235	17630.501547907765	0.2
2718	57240	17630.706457274276	0.2
2718	58252	17950.2	0.2
2718	58255	17950.4	0.2
2718	58260	17950.709134197831	0.3
2718	58267	17951.024674091335	0.3
2718	59302	18270.1	0.1
2718	59306	18270.30335834081	0.2
2718	59311	18270.607129124504	0.3
2718	59315	18270.80713200222	0.2
2718	60330	18590	0
2718	60333	18590.2	0.2
2718	60338	18590.414706045784	0.2
2718	60347	18590.632865973505	0.2
2718	61365	18910.1	0.1
2718	61368	18910.3	0.2
2718	61373	18910.512633545836	0.2
2718	61377	18910.719289144041	0.2
2718	62398	19230	0
2718	62401	19230.2	0.2
2718	62406	19230.40041702287	0.2
2718	62416	19230.735320119579	0.3
2718	63428	19550	0
2718	63432	19550.3	0.3
2718	63437	19550.603117263349	0.3
2718	63441	19550.811436324684	0.2
2718	64505	19870.1	0.1
2718	64509	19870.300028734246	0.2
2718	64513	19870.503968081576	0.2
2718	64518	19870.71067681629	0.2
2718	65539	20190.2	0.2
2718	65545	20190.516485730632	0.3
2718	65549	20190.720919180345	0.2
2718	65555	20190.927390440547	0.2
2719	61	40.2	2
2719	67	40.516332798811	2
2719	72	40.726876747135	1
2719	82	41.056618464006	2
2719	1089	360.2	2
2719	1093	360.403760418172	1
2719	1098	360.612378031747	1
2719	1103	360.823953804742	1
2719	2129	680.2	2
2719	2132	680.4	1
2719	2136	680.609319873664	1
2719	2140	680.811850383321	1
2719	3191	1000.2	2
2719	3195	1000.402620952369	1
2719	3199	1000.606652503111	1
2719	3212	1000.846387393502	1
2719	4273	1320	0
2719	4276	1320.2	1
2719	4281	1320.40390277431	1
2719	4288	1320.618545422083	1
2719	5307	1640	0
2719	5311	1640.3	2
2719	5315	1640.505794669087	1
2719	5323	1640.830852178555	2
2719	6356	1960.2	2
2719	6365	1960.522885978157	2
2719	6370	1960.730724828054	1
2719	6375	1960.93414708678	1
2719	7391	2280.2	2
2719	7395	2280.5	2
2719	7402	2280.718830264117	1
2719	7406	2280.920428246543	1
2719	8390	2600.2	2
2719	8393	2600.4	1
2719	8398	2600.610893103523	1
2719	8405	2600.833025684484	1
2719	9431	2920.1	1
2719	9434	2920.3	1
2719	9440	2920.510863165651	1
2719	9444	2920.717714037604	1
2719	10449	3240.2	2
2719	10454	3240.501552457173	2
2719	10459	3240.711617177665	1
2719	10469	3240.952968464529	1
2719	11469	3560.1	1
2719	11472	3560.3	1
2719	11477	3560.513148512244	1
2719	11482	3560.819056064029	2
2719	12494	3880.1	1
2719	12498	3880.308111779582	1
2719	12502	3880.513100891545	1
2719	12512	3880.745021574043	1
2719	13551	4200.1	1
2719	13556	4200.304383761328	1
2719	13561	4200.609459692304	2
2719	13566	4200.917174385447	2
2719	14606	4520.2	2
2719	14610	4520.5	2
2719	14615	4520.802216493191	2
2719	14621	4521.106316029384	2
2719	15660	4840.2	2
2719	15664	4840.5	2
2719	15669	4840.710086842772	1
2719	15675	4840.92114423475	1
2719	16691	5160.2	2
2719	16696	5160.502063500722	2
2719	16700	5160.706033990582	1
2719	16713	5160.960747134688	1
2719	17729	5480.1	1
2719	17733	5480.4	2
2719	17737	5480.608289474302	1
2719	17748	5480.935684300079	2
2719	18772	5800.2	2
2719	18775	5800.4	1
2719	18780	5800.706418760339	2
2719	18785	5800.915071075138	1
2719	19792	6120.2	2
2719	19796	6120.5	2
2719	19801	6120.711119229148	1
2719	19811	6120.95418386694	1
2719	20838	6440.2	2
2719	20841	6440.4	1