file 1014830 1369933138                                         
version 2
run Stability-78-20130528-00:55:19-21385
attr configname Stability
attr datetime 20130528-00:55:19
attr experiment Stability
attr inifile omnetpp.ini
attr iterationvars $0=1e-1
attr iterationvars2 "$0=1e-1, $repetition=8"
attr measurement $0=1e-1
attr network Network
attr processid 21385
attr repetition 8
attr replication #8
attr resultdir results
attr runnumber 78
attr seedset 78
vector 7662  Network.churner  inGoingSizeSig:vector  ETV
7662	890689 124141 24 138684 20 137.667625037375 4097 0 31 125746 3881098
vector 7584  Network.dyn_peer[6]  lookupHopsSig:vector  ETV
7584	173636 8388 49 138645 20.0007 137.566566802387 285 0 33 1321 10445
vector 7585  Network.dyn_peer[6]  lookupStabilitySig:vector  ETV
7585	182024 9323 49 138645 20.0007 137.566566802387 285 -3.125 1 120.06944441795 117.99440584065
vector 7586  Network.dyn_peer[6]  lookupTimeSig:vector  ETV
7586	191347 8902 49 138645 20.0007 137.566566802387 285 0 3 144.3 108.47
vector 7590  Network.dyn_peer[8]  lookupHopsSig:vector  ETV
7590	227816 8615 59 138392 20.0009 137.033974127246 293 0 21 1272 9072
vector 7591  Network.dyn_peer[8]  lookupStabilitySig:vector  ETV
7591	236431 9591 59 138392 20.0009 137.033974127246 293 -1.625 1 134.13888883591 116.69984569079
vector 7592  Network.dyn_peer[8]  lookupTimeSig:vector  ETV
7592	246022 9138 59 138392 20.0009 137.033974127246 293 0 1.8 140 94.14
vector 7596  Network.dyn_peer[10]  lookupHopsSig:vector  ETV
7596	281588 8696 69 137188 20.0011 135.807332788504 295 0 23 1255 8259
vector 7597  Network.dyn_peer[10]  lookupStabilitySig:vector  ETV
7597	290284 9672 69 137188 20.0011 135.807332788504 295 -1.875 1 138.23611109704 110.43383485815
vector 7598  Network.dyn_peer[10]  lookupTimeSig:vector  ETV
7598	299956 9247 69 137188 20.0011 135.807332788504 295 0 2.1 141.6 92.88
vector 7617  Network.dyn_peer[17]  lookupHopsSig:vector  ETV
7617	477343 8451 94 138446 20.0018 137.093836534274 287 0 22 1304 9618
vector 7618  Network.dyn_peer[17]  lookupStabilitySig:vector  ETV
7618	485794 9366 94 138446 20.0018 137.093836534274 287 -1.75 1 124 111.28125
vector 7619  Network.dyn_peer[17]  lookupTimeSig:vector  ETV
7619	495160 8967 94 138446 20.0018 137.093836534274 287 0 2 143.7 101.61
vector 7569  Network.dyn_peer[1]  lookupHopsSig:vector  ETV
7569	33354 9021 142 137595 20.1002 136.152943554558 308 0 17 1256 7620
vector 7570  Network.dyn_peer[1]  lookupStabilitySig:vector  ETV
7570	42375 10069 142 137595 20.1002 136.152943554558 308 -1.125 1 151.23611105978 113.01986883783
vector 7571  Network.dyn_peer[1]  lookupTimeSig:vector  ETV
7571	52444 9608 142 137595 20.1002 136.152943554558 308 0 1.6 142 85.68
vector 7575  Network.dyn_peer[3]  lookupHopsSig:vector  ETV
7575	87815 8739 148 137878 20.1004 136.423847636489 297 0 19 1285 8361
vector 7576  Network.dyn_peer[3]  lookupStabilitySig:vector  ETV
7576	96554 9697 148 137878 20.1004 136.423847636489 297 -1.375 1 136.375 106.390625
vector 7577  Network.dyn_peer[3]  lookupTimeSig:vector  ETV
7577	106251 9304 148 137878 20.1004 136.423847636489 297 0 1.6 143.2 90.42
vector 7581  Network.dyn_peer[5]  lookupHopsSig:vector  ETV
7581	145798 8775 154 137340 20.1006 135.911561261614 299 0 24 1295 9531
vector 7582  Network.dyn_peer[5]  lookupStabilitySig:vector  ETV
7582	154573 9747 154 137340 20.1006 135.911561261614 299 -2 1 137.125 124.171875
vector 7583  Network.dyn_peer[5]  lookupTimeSig:vector  ETV
7583	164320 9316 154 137340 20.1006 135.911561261614 299 0 2 142.4 97.3
vector 7587  Network.dyn_peer[7]  lookupHopsSig:vector  ETV
7587	200249 8687 160 138562 20.1008 137.355322975374 295 0 18 1300 8830
vector 7588  Network.dyn_peer[7]  lookupStabilitySig:vector  ETV
7588	208936 9649 160 138562 20.1008 137.355322975374 295 -1.25 1 132.5 107.96875
vector 7589  Network.dyn_peer[7]  lookupTimeSig:vector  ETV
7589	218585 9231 160 138562 20.1008 137.355322975374 295 0 1.6 143.2 93.16
vector 7620  Network.dyn_peer[18]  lookupHopsSig:vector  ETV
7620	504127 7412 175 137280 20.1019 135.857641651273 252 0 22 1228 9352
vector 7621  Network.dyn_peer[18]  lookupStabilitySig:vector  ETV
7621	511539 8206 175 137280 20.1019 135.857641651273 252 -1.75 1 98.5 91.125
vector 7622  Network.dyn_peer[18]  lookupTimeSig:vector  ETV
7622	519745 7872 175 137280 20.1019 135.857641651273 252 0 2 134.3 99.67
vector 7623  Network.dyn_peer[19]  lookupHopsSig:vector  ETV
7623	527617 9113 180 137537 20.102 136.116816162553 310 0 21 1244 7830
vector 7624  Network.dyn_peer[19]  lookupStabilitySig:vector  ETV
7624	536730 10165 180 137537 20.102 136.116816162553 310 -1.625 1 154.59722220898 121.48900461087
vector 7625  Network.dyn_peer[19]  lookupTimeSig:vector  ETV
7625	546895 9685 180 137537 20.102 136.116816162553 310 0 2 140.5 87.17
vector 7638  Network.dyn_peer[24]  lookupHopsSig:vector  ETV
7638	667367 8473 189 137563 20.1025 136.132274362803 289 0 18 1242 8206
vector 7639  Network.dyn_peer[24]  lookupStabilitySig:vector  ETV
7639	675840 9425 189 137563 20.1025 136.132274362803 289 -1.25 1 133.9999999851 106.85802467186
vector 7640  Network.dyn_peer[24]  lookupTimeSig:vector  ETV
7640	685265 9008 189 137563 20.1025 136.132274362803 289 0 1.6 138.8 89.64
vector 7644  Network.dyn_peer[26]  lookupHopsSig:vector  ETV
7644	725349 8301 195 138576 20.1027 137.363072196886 282 0 17 1204 7846
vector 7645  Network.dyn_peer[26]  lookupStabilitySig:vector  ETV
7645	733650 9213 195 138576 20.1027 137.363072196886 282 -1.125 1 131.5 103.59375
vector 7646  Network.dyn_peer[26]  lookupTimeSig:vector  ETV
7646	742863 8834 195 138576 20.1027 137.363072196886 282 0 1.5 132.6 83.1
vector 7650  Network.dyn_peer[28]  lookupHopsSig:vector  ETV
7650	777948 8777 201 137744 20.1029 136.304461027384 298 0 20 1208 7746
vector 7651  Network.dyn_peer[28]  lookupStabilitySig:vector  ETV
7651	786725 9801 201 137744 20.1029 136.304461027384 298 -1.5 1 147.11944442987 117.20500769546
vector 7652  Network.dyn_peer[28]  lookupTimeSig:vector  ETV
7652	796526 9348 201 137744 20.1029 136.304461027384 298 0 1.7 135.9 84.67
vector 7653  Network.dyn_peer[29]  lookupHopsSig:vector  ETV
7653	805874 9143 206 138682 20.103 137.665202082686 310 0 22 1313 9131
vector 7654  Network.dyn_peer[29]  lookupStabilitySig:vector  ETV
7654	815017 10162 206 138682 20.103 137.665202082686 310 -1.75 1 145.95833332837 124.52295524066
vector 7655  Network.dyn_peer[29]  lookupTimeSig:vector  ETV
7655	825179 9723 206 138682 20.103 137.665202082686 310 0 2.1 147.5 100.21
vector 7599  Network.dyn_peer[11]  lookupHopsSig:vector  ETV
7599	309203 9057 226 137813 20.2012 136.362320953176 308 0 15 1233 7299
vector 7600  Network.dyn_peer[11]  lookupStabilitySig:vector  ETV
7600	318260 10077 226 137813 20.2012 136.362320953176 308 -0.875 1 154.01388886571 113.88445214136
vector 7601  Network.dyn_peer[11]  lookupTimeSig:vector  ETV
7601	328337 9643 226 137813 20.2012 136.362320953176 308 0 1.4 137.9 80.57
vector 7602  Network.dyn_peer[12]  lookupHopsSig:vector  ETV
7602	337980 8543 231 137907 20.2013 136.437031279706 291 0 20 1263 9381
vector 7603  Network.dyn_peer[12]  lookupStabilitySig:vector  ETV
7603	346523 9515 231 137907 20.2013 136.437031279706 291 -1.5 1 133.18055555224 121.88676697163
vector 7604  Network.dyn_peer[12]  lookupTimeSig:vector  ETV
7604	356038 9085 231 137907 20.2013 136.437031279706 291 0 1.9 138 94.6
vector 7605  Network.dyn_peer[13]  lookupHopsSig:vector  ETV
7605	365123 9013 236 138582 20.2014 137.372405827942 307 0 23 1331 9701
vector 7606  Network.dyn_peer[13]  lookupStabilitySig:vector  ETV
7606	374136 10018 236 138582 20.2014 137.372405827942 307 -1.875 1 140.68055554479 125.90644288652
vector 7607  Network.dyn_peer[13]  lookupTimeSig:vector  ETV
7607	384154 9585 236 138582 20.2014 137.372405827942 307 0 2.1 148.5 101.69
vector 7611  Network.dyn_peer[15]  lookupHopsSig:vector  ETV
7611	421394 8604 242 138043 20.2016 136.553043554558 293 0 20 1228 8340
vector 7612  Network.dyn_peer[15]  lookupStabilitySig:vector  ETV
7612	429998 9594 242 138043 20.2016 136.553043554558 293 -1.5 1 139.56944441795 116.36940584065
vector 7613  Network.dyn_peer[15]  lookupTimeSig:vector  ETV
7613	439592 9156 242 138043 20.2016 136.553043554558 293 0.1 1.8 135.9 87.83
vector 7626  Network.dyn_peer[20]  lookupHopsSig:vector  ETV
7626	556580 8608 251 138349 20.2021 136.968521714818 292 0 16 1264 8284
vector 7627  Network.dyn_peer[20]  lookupStabilitySig:vector  ETV
7627	565188 9572 251 138349 20.2021 136.968521714818 292 -1 1 134 105.4375
vector 7628  Network.dyn_peer[20]  lookupTimeSig:vector  ETV
7628	574760 9151 251 138349 20.2021 136.968521714818 292 0 1.6 140 90.62
vector 7656  Network.dyn_peer[30]  lookupHopsSig:vector  ETV
7656	834902 8528 265 138012 20.2031 136.542351403617 290 0 23 1241 8705
vector 7657  Network.dyn_peer[30]  lookupStabilitySig:vector  ETV
7657	843430 9459 265 138012 20.2031 136.542351403617 290 -1.875 1 134.875 115.765625
vector 7658  Network.dyn_peer[30]  lookupTimeSig:vector  ETV
7658	852889 9056 265 138012 20.2031 136.542351403617 290 0 2.1 136.5 89.83
vector 7659  Network.dyn_peer[31]  lookupHopsSig:vector  ETV
7659	861945 9043 270 137182 20.2032 135.803120163762 307 0 18 1278 8608
vector 7660  Network.dyn_peer[31]  lookupStabilitySig:vector  ETV
7660	870988 10086 270 137182 20.2032 135.803120163762 307 -1.25 1 147.29166665673 122.0538194312
vector 7661  Network.dyn_peer[31]  lookupTimeSig:vector  ETV
7661	881074 9615 270 137182 20.2032 135.803120163762 307 0 1.8 142.5 92.73
vector 7566  Network.dyn_peer[0]  lookupHopsSig:vector  ETV
7566	6438 8475 283 138242 20.3001 136.815960372237 289 0 17 1287 8871
vector 7567  Network.dyn_peer[0]  lookupStabilitySig:vector  ETV
7567	14913 9437 283 138242 20.3001 136.815960372237 289 -1.125 1 128.15277777612 105.90181326903
vector 7568  Network.dyn_peer[0]  lookupTimeSig:vector  ETV
7568	24350 9004 283 138242 20.3001 136.815960372237 289 0 1.8 141.3 94.35
vector 7572  Network.dyn_peer[2]  lookupHopsSig:vector  ETV
7572	62052 8128 289 138666 20.3003 137.630402460571 275 0 29 1331 10105
vector 7573  Network.dyn_peer[2]  lookupStabilitySig:vector  ETV
7573	70180 9008 289 138666 20.3003 137.630402460571 275 -2.625 1 108.72222220898 100.17438271016
vector 7574  Network.dyn_peer[2]  lookupTimeSig:vector  ETV
7574	79188 8627 289 138666 20.3003 137.630402460571 275 0 2.5 144.7 104.63
vector 7608  Network.dyn_peer[14]  lookupHopsSig:vector  ETV
7608	393739 8715 307 137282 20.3015 135.857741651273 296 0 16 1308 8776
vector 7609  Network.dyn_peer[14]  lookupStabilitySig:vector  ETV
7609	402454 9677 307 137282 20.3015 135.857741651273 296 -1 1 132.51388888806 106.14949845532
vector 7610  Network.dyn_peer[14]  lookupTimeSig:vector  ETV
7610	412131 9263 307 137282 20.3015 135.857741651273 296 0 1.4 146.3 97.93
vector 7629  Network.dyn_peer[21]  lookupHopsSig:vector  ETV
7629	583911 9518 317 136872 20.3022 135.552330000151 324 0 20 1308 8166
vector 7630  Network.dyn_peer[21]  lookupStabilitySig:vector  ETV
7630	593429 10577 317 136872 20.3022 135.552330000151 324 -1.5 1 160.62499996275 124.72897372717
vector 7631  Network.dyn_peer[21]  lookupTimeSig:vector  ETV
7631	604006 10129 317 136872 20.3022 135.552330000151 324 0 1.8 148.7 92.29
vector 7635  Network.dyn_peer[23]  lookupHopsSig:vector  ETV
7635	641340 8188 323 137168 20.3024 135.793038668125 279 0 20 1263 9163
vector 7636  Network.dyn_peer[23]  lookupStabilitySig:vector  ETV
7636	649528 9149 323 137168 20.3024 135.793038668125 279 -1.5 1 121.2499999702 106.56365737871
vector 7637  Network.dyn_peer[23]  lookupTimeSig:vector  ETV
7637	658677 8690 323 137168 20.3024 135.793038668125 279 0 1.9 139.4 96.78
vector 7647  Network.dyn_peer[27]  lookupHopsSig:vector  ETV
7647	751697 8270 331 137761 20.3028 136.321620113074 281 0 23 1288 9658
vector 7648  Network.dyn_peer[27]  lookupStabilitySig:vector  ETV
7648	759967 9193 331 137761 20.3028 136.321620113074 281 -1.875 1 120.02777777612 109.94868826903
vector 7649  Network.dyn_peer[27]  lookupTimeSig:vector  ETV
7649	769160 8788 331 137761 20.3028 136.321620113074 281 0 2.1 141.8 101.6
vector 7593  Network.dyn_peer[9]  lookupHopsSig:vector  ETV
7593	255160 8333 358 138408 20.401 137.044733120374 283 0 18 1281 9281
vector 7594  Network.dyn_peer[9]  lookupStabilitySig:vector  ETV
7594	263493 9238 358 138408 20.401 137.044733120374 283 -1.25 1 122.875 107.765625
vector 7595  Network.dyn_peer[9]  lookupTimeSig:vector  ETV
7595	272731 8857 358 138408 20.401 137.044733120374 283 0 1.7 142.3 99.75
vector 7614  Network.dyn_peer[16]  lookupHopsSig:vector  ETV
7614	448748 8998 369 138535 20.4017 137.320156485093 306 0 21 1317 8725
vector 7615  Network.dyn_peer[16]  lookupStabilitySig:vector  ETV
7615	457746 10019 369 138535 20.4017 137.320156485093 306 -1.625 1 141.40277777612 113.12056326903
vector 7616  Network.dyn_peer[16]  lookupTimeSig:vector  ETV
7616	467765 9578 369 138535 20.4017 137.320156485093 306 0.1 1.7 146.3 94.57
vector 7578  Network.dyn_peer[4]  lookupHopsSig:vector  ETV
7578	115555 9529 406 137697 20.5005 136.261279468816 323 0 18 1323 8109
vector 7579  Network.dyn_peer[4]  lookupStabilitySig:vector  ETV
7579	125084 10571 406 137697 20.5005 136.261279468816 323 -1.25 1 157.625 118.953125
vector 7580  Network.dyn_peer[4]  lookupTimeSig:vector  ETV
7580	135655 10143 406 137697 20.5005 136.261279468816 323 0 1.7 148.3 90.55
vector 7632  Network.dyn_peer[22]  lookupHopsSig:vector  ETV
7632	614135 8562 422 138020 20.5023 136.548212410822 291 0 21 1295 9195
vector 7633  Network.dyn_peer[22]  lookupStabilitySig:vector  ETV
7633	622697 9535 422 138020 20.5023 136.548212410822 291 -1.625 1 129.15277777612 110.96431326903
vector 7634  Network.dyn_peer[22]  lookupTimeSig:vector  ETV
7634	632232 9108 422 138020 20.5023 136.548212410822 291 0 1.8 142.4 95.52
vector 7641  Network.dyn_peer[25]  lookupHopsSig:vector  ETV
7641	694273 9796 543 138613 20.7026 137.440418767082 332 0 20 1266 7712
vector 7642  Network.dyn_peer[25]  lookupStabilitySig:vector  ETV
7642	704069 10853 543 138613 20.7026 137.440418767082 332 -1.5 1 173.79166665673 136.0538194312
vector 7643  Network.dyn_peer[25]  lookupTimeSig:vector  ETV
7643	714922 10427 543 138613 20.7026 137.440418767082 332 0 1.9 145.1 88.01
