file 1024132 1369933138                                         
version 2
run Stability-68-20130528-00:54:35-21385
attr configname Stability
attr datetime 20130528-00:54:35
attr experiment Stability
attr inifile omnetpp.ini
attr iterationvars $0=1e0
attr iterationvars2 "$0=1e0, $repetition=8"
attr measurement $0=1e0
attr network Network
attr processid 21385
attr repetition 8
attr replication #8
attr resultdir results
attr runnumber 68
attr seedset 68
vector 6692  Network.churner  inGoingSizeSig:vector  ETV
6692	900026 124106 21 139748 20 137.057403861563 4097 0 31 125429 3861829
vector 6596  Network.dyn_peer[0]  lookupHopsSig:vector  ETV
6596	6435 9213 28 138730 20.001 135.447209595219 313 0 20 1313 8853
vector 6597  Network.dyn_peer[0]  lookupStabilitySig:vector  ETV
6597	15648 10212 28 138730 20.001 135.447209595219 313 -1.5 1 148.875 123.078125
vector 6598  Network.dyn_peer[0]  lookupTimeSig:vector  ETV
6598	25860 9799 28 138730 20.001 135.447209595219 313 0 1.9 146.4 94.88
vector 6599  Network.dyn_peer[1]  lookupHopsSig:vector  ETV
6599	35659 8378 35 139067 20.002 135.761177824498 284 0 22 1275 9229
vector 6600  Network.dyn_peer[1]  lookupStabilitySig:vector  ETV
6600	44037 9324 35 139067 20.002 135.761177824498 284 -1.75 1 124.625 109.453125
vector 6601  Network.dyn_peer[1]  lookupTimeSig:vector  ETV
6601	53361 8899 35 139067 20.002 135.761177824498 284 0 2 138.9 94.19
vector 6659  Network.dyn_peer[21]  lookupHopsSig:vector  ETV
6659	596928 8623 102 138388 20.022 135.135642525886 292 0 23 1274 9078
vector 6660  Network.dyn_peer[21]  lookupStabilitySig:vector  ETV
6660	605551 9556 102 138388 20.022 135.135642525886 292 -1.875 1 132.76388888806 115.36824845532
vector 6661  Network.dyn_peer[21]  lookupTimeSig:vector  ETV
6661	615107 9157 102 138388 20.022 135.135642525886 292 0 2.1 139.9 94.31
vector 6686  Network.dyn_peer[30]  lookupHopsSig:vector  ETV
6686	845327 9026 134 139544 20.031 136.340040882397 306 0 23 1284 9306
vector 6687  Network.dyn_peer[30]  lookupStabilitySig:vector  ETV
6687	854353 10026 134 139544 20.031 136.340040882397 306 -1.875 1 145.5 130.40625
vector 6688  Network.dyn_peer[30]  lookupTimeSig:vector  ETV
6688	864379 9591 134 139544 20.031 136.340040882397 306 0 2.2 142.5 97.95
vector 6602  Network.dyn_peer[2]  lookupHopsSig:vector  ETV
6602	62260 8915 143 139703 20.103 136.655164408922 303 0 31 1259 8231
vector 6603  Network.dyn_peer[2]  lookupStabilitySig:vector  ETV
6603	71175 9906 143 139703 20.103 136.655164408922 303 -2.875 1 145.625 116.859375
vector 6604  Network.dyn_peer[2]  lookupTimeSig:vector  ETV
6604	81081 9486 143 139703 20.103 136.655164408922 303 0 2.8 142.2 91
vector 6629  Network.dyn_peer[11]  lookupHopsSig:vector  ETV
6629	311883 8843 157 139338 20.112 136.068936373391 300 0 19 1255 8363
vector 6630  Network.dyn_peer[11]  lookupStabilitySig:vector  ETV
6630	320726 9820 157 139338 20.112 136.068936373391 300 -1.375 1 143.15277777612 116.96431326903
vector 6631  Network.dyn_peer[11]  lookupTimeSig:vector  ETV
6631	330546 9406 157 139338 20.112 136.068936373391 300 0 1.7 141 90.76
vector 6635  Network.dyn_peer[13]  lookupHopsSig:vector  ETV
6635	369536 9421 163 138742 20.114 135.450197176343 321 0 20 1274 8188
vector 6636  Network.dyn_peer[13]  lookupStabilitySig:vector  ETV
6636	378957 10483 163 138742 20.114 135.450197176343 321 -1.5 1 161.76388888806 130.46199845532
vector 6637  Network.dyn_peer[13]  lookupTimeSig:vector  ETV
6637	389440 10007 163 138742 20.114 135.450197176343 321 0 1.8 142.1 89.41
vector 6638  Network.dyn_peer[14]  lookupHopsSig:vector  ETV
6638	399447 8256 168 139428 20.115 136.176963120283 280 0 19 1242 8462
vector 6639  Network.dyn_peer[14]  lookupStabilitySig:vector  ETV
6639	407703 9199 168 139428 20.115 136.176963120283 280 -1.375 1 124.88888887316 101.81944443451
vector 6640  Network.dyn_peer[14]  lookupTimeSig:vector  ETV
6640	416902 8773 168 139428 20.115 136.176963120283 280 0 1.8 138 91.66
vector 6671  Network.dyn_peer[25]  lookupHopsSig:vector  ETV
6671	708581 8606 182 138676 20.126 135.413767618723 292 0 17 1199 7633
vector 6672  Network.dyn_peer[25]  lookupStabilitySig:vector  ETV
6672	717187 9527 182 138676 20.126 135.413767618723 292 -1.125 1 142.125 111.515625
vector 6673  Network.dyn_peer[25]  lookupTimeSig:vector  ETV
6673	726714 9141 182 138676 20.126 135.413767618723 292 0 1.5 133.9 83.11
vector 6683  Network.dyn_peer[29]  lookupHopsSig:vector  ETV
6683	816491 9097 191 138425 20.13 135.161571225317 310 0 24 1286 8714
vector 6684  Network.dyn_peer[29]  lookupStabilitySig:vector  ETV
6684	825588 10082 191 138425 20.13 135.161571225317 310 -2 1 149.25 124.65625
vector 6685  Network.dyn_peer[29]  lookupTimeSig:vector  ETV
6685	835670 9657 191 138425 20.13 135.161571225317 310 0 2 142.9 91.39
vector 6605  Network.dyn_peer[3]  lookupHopsSig:vector  ETV
6605	90567 8811 200 139723 20.204 136.679148183191 299 0 17 1252 8410
vector 6606  Network.dyn_peer[3]  lookupStabilitySig:vector  ETV
6606	99378 9754 200 139723 20.204 136.679148183191 299 -1.125 1 142.5 117.40625
vector 6607  Network.dyn_peer[3]  lookupTimeSig:vector  ETV
6607	109132 9377 200 139723 20.204 136.679148183191 299 0 1.7 139.8 91.6
vector 6608  Network.dyn_peer[4]  lookupHopsSig:vector  ETV
6608	118509 8578 205 139187 20.205 135.871726427537 292 0 25 1305 9365
vector 6609  Network.dyn_peer[4]  lookupStabilitySig:vector  ETV
6609	127087 9519 205 139187 20.205 135.871726427537 292 -2.125 1 128.875 112.078125
vector 6610  Network.dyn_peer[4]  lookupTimeSig:vector  ETV
6610	136606 9111 205 139187 20.205 135.871726427537 292 0 2.3 144 99.38
vector 6611  Network.dyn_peer[5]  lookupHopsSig:vector  ETV
6611	145717 8381 212 138794 20.206 135.509006434215 285 0 17 1231 8075
vector 6612  Network.dyn_peer[5]  lookupStabilitySig:vector  ETV
6612	154098 9323 212 138794 20.206 135.509006434215 285 -1.125 1 131.13888888806 103.44637345532
vector 6613  Network.dyn_peer[5]  lookupTimeSig:vector  ETV
6613	163421 8911 212 138794 20.206 135.509006434215 285 0 1.6 136.6 87.84
vector 6614  Network.dyn_peer[6]  lookupHopsSig:vector  ETV
6614	172332 8923 217 139665 20.207 136.530613521037 303 0 23 1329 9663
vector 6615  Network.dyn_peer[6]  lookupStabilitySig:vector  ETV
6615	181255 9947 217 139665 20.207 136.530613521037 303 -1.875 1 136.94444444031 121.81751542695
vector 6616  Network.dyn_peer[6]  lookupTimeSig:vector  ETV
6616	191202 9489 217 139665 20.207 136.530613521037 303 0 2.1 147.8 101.6
vector 6617  Network.dyn_peer[7]  lookupHopsSig:vector  ETV
6617	200691 9177 222 139440 20.208 136.184491258702 313 0 17 1244 7700
vector 6618  Network.dyn_peer[7]  lookupStabilitySig:vector  ETV
6618	209868 10212 222 139440 20.208 136.184491258702 313 -1.125 1 157.58333332837 122.41358024066
vector 6619  Network.dyn_peer[7]  lookupTimeSig:vector  ETV
6619	220080 9765 222 139440 20.208 136.184491258702 313 0 1.6 139.1 83.51
vector 6620  Network.dyn_peer[8]  lookupHopsSig:vector  ETV
6620	229845 8849 227 138448 20.209 135.203501780891 301 0 20 1296 8734
vector 6621  Network.dyn_peer[8]  lookupStabilitySig:vector  ETV
6621	238694 9848 227 138448 20.209 135.203501780891 301 -1.5 1 139.22222217917 113.59182094939
vector 6622  Network.dyn_peer[8]  lookupTimeSig:vector  ETV
6622	248542 9410 227 138448 20.209 135.203501780891 301 0 1.9 144.8 95.58
vector 6626  Network.dyn_peer[10]  lookupHopsSig:vector  ETV
6626	282888 9130 233 138898 20.211 135.582412350826 310 0 32 1308 9378
vector 6627  Network.dyn_peer[10]  lookupStabilitySig:vector  ETV
6627	292018 10145 233 138898 20.211 135.582412350826 310 -3 1 146.5 129.53125
vector 6628  Network.dyn_peer[10]  lookupTimeSig:vector  ETV
6628	302163 9720 233 138898 20.211 135.582412350826 310 0 3 146.9 100.55
vector 6632  Network.dyn_peer[12]  lookupHopsSig:vector  ETV
6632	339952 9310 240 139530 20.213 136.329874347361 317 0 20 1336 9360
vector 6633  Network.dyn_peer[12]  lookupStabilitySig:vector  ETV
6633	349262 10370 240 139530 20.213 136.329874347361 317 -1.5 1 150 129.25
vector 6634  Network.dyn_peer[12]  lookupTimeSig:vector  ETV
6634	359632 9904 240 139530 20.213 136.329874347361 317 0 1.9 149.7 100.93
vector 6644  Network.dyn_peer[16]  lookupHopsSig:vector  ETV
6644	454225 9745 248 139548 20.217 136.343824319031 331 0 27 1348 8874
vector 6645  Network.dyn_peer[16]  lookupStabilitySig:vector  ETV
6645	463970 10830 248 139548 20.217 136.343824319031 331 -2.375 1 162.59722219408 132.75559410968
vector 6646  Network.dyn_peer[16]  lookupTimeSig:vector  ETV
6646	474800 10366 248 139548 20.217 136.343824319031 331 0 2.3 151 94.3
vector 6647  Network.dyn_peer[17]  lookupHopsSig:vector  ETV
6647	485166 8173 254 139319 20.218 136.054709430068 278 0 17 1224 8292
vector 6648  Network.dyn_peer[17]  lookupStabilitySig:vector  ETV
6648	493339 9104 254 139319 20.218 136.054709430068 278 -1.125 1 125.04166665673 101.6163194312
vector 6649  Network.dyn_peer[17]  lookupTimeSig:vector  ETV
6649	502443 8678 254 139319 20.218 136.054709430068 278 0 1.5 135.9 90.29
vector 6665  Network.dyn_peer[23]  lookupHopsSig:vector  ETV
6665	654704 9218 263 138522 20.224 135.246163377747 314 1 17 1258 7932
vector 6666  Network.dyn_peer[23]  lookupStabilitySig:vector  ETV
6666	663922 10273 263 138522 20.224 135.246163377747 314 -1.125 0.875 156.75 123.4375
vector 6667  Network.dyn_peer[23]  lookupTimeSig:vector  ETV
6667	674195 9816 263 138522 20.224 135.246163377747 314 0.1 1.5 141.7 87.45
vector 6623  Network.dyn_peer[9]  lookupHopsSig:vector  ETV
6623	257952 7859 290 138450 20.31 135.20570742797 267 0 23 1245 9217
vector 6624  Network.dyn_peer[9]  lookupStabilitySig:vector  ETV
6624	265811 8719 290 138450 20.31 135.20570742797 267 -1.875 1 111.40277777612 99.808063269029
vector 6625  Network.dyn_peer[9]  lookupTimeSig:vector  ETV
6625	274530 8358 290 138450 20.31 135.20570742797 267 0 2.2 135.4 95.9
vector 6656  Network.dyn_peer[20]  lookupHopsSig:vector  ETV
6656	569003 8796 308 139035 20.321 135.746249042353 298 0 23 1304 9626
vector 6657  Network.dyn_peer[20]  lookupStabilitySig:vector  ETV
6657	577799 9779 308 139035 20.321 135.746249042353 298 -1.875 1 135.02777777612 122.44868826903
vector 6658  Network.dyn_peer[20]  lookupTimeSig:vector  ETV
6658	587578 9350 308 139035 20.321 135.746249042353 298 0 2.1 142.2 98.62
vector 6662  Network.dyn_peer[22]  lookupHopsSig:vector  ETV
6662	624264 9577 313 139601 20.323 136.421643103751 326 0 15 1261 7303
vector 6663  Network.dyn_peer[22]  lookupStabilitySig:vector  ETV
6663	633841 10673 313 139601 20.323 136.421643103751 326 -0.875 1 168.45833331347 124.9670138624
vector 6664  Network.dyn_peer[22]  lookupTimeSig:vector  ETV
6664	644514 10190 313 139601 20.323 136.421643103751 326 0 1.3 143.9 83.73
vector 6668  Network.dyn_peer[24]  lookupHopsSig:vector  ETV
6668	684011 7746 319 138756 20.325 135.458309253995 263 0 29 1209 9869
vector 6669  Network.dyn_peer[24]  lookupStabilitySig:vector  ETV
6669	691757 8601 319 138756 20.325 135.458309253995 263 -2.625 1 111.875 114.953125
vector 6670  Network.dyn_peer[24]  lookupTimeSig:vector  ETV
6670	700358 8223 319 138756 20.325 135.458309253995 263 0 2.7 132 99.42
vector 6674  Network.dyn_peer[26]  lookupHopsSig:vector  ETV
6674	735855 8395 326 139650 20.327 136.487773641474 285 0 21 1245 8419
vector 6675  Network.dyn_peer[26]  lookupStabilitySig:vector  ETV
6675	744250 9322 326 139650 20.327 136.487773641474 285 -1.625 1 129.375 105.296875
vector 6676  Network.dyn_peer[26]  lookupTimeSig:vector  ETV
6676	753572 8928 326 139650 20.327 136.487773641474 285 0.1 1.9 138.4 91.42
vector 6680  Network.dyn_peer[28]  lookupHopsSig:vector  ETV
6680	790628 8141 332 138840 20.329 135.542602521208 277 0 25 1266 9776
vector 6681  Network.dyn_peer[28]  lookupStabilitySig:vector  ETV
6681	798769 9067 332 138840 20.329 135.542602521208 277 -2.125 1 118.91666662693 113.1111111376
vector 6682  Network.dyn_peer[28]  lookupTimeSig:vector  ETV
6682	807836 8655 332 138840 20.329 135.542602521208 277 0 2.3 139 101.24
vector 6650  Network.dyn_peer[18]  lookupHopsSig:vector  ETV
6650	511121 9026 361 138307 20.419 135.042040935604 307 0 25 1302 8600
vector 6651  Network.dyn_peer[18]  lookupStabilitySig:vector  ETV
6651	520147 10039 361 138307 20.419 135.042040935604 307 -2.125 1 144.38888883591 115.82484569079
vector 6652  Network.dyn_peer[18]  lookupTimeSig:vector  ETV
6652	530186 9606 361 138307 20.419 135.042040935604 307 0 2.2 146.7 94.65
vector 6653  Network.dyn_peer[19]  lookupHopsSig:vector  ETV
6653	539792 9202 366 139125 20.42 135.838339671182 313 0 18 1281 8343
vector 6654  Network.dyn_peer[19]  lookupStabilitySig:vector  ETV
6654	548994 10226 366 139125 20.42 135.838339671182 313 -1.25 1 152.88888888806 123.13387345532
vector 6655  Network.dyn_peer[19]  lookupTimeSig:vector  ETV
6655	559220 9783 366 139125 20.42 135.838339671182 313 0 1.7 145.4 94.44
vector 6641  Network.dyn_peer[15]  lookupHopsSig:vector  ETV
6641	425675 8989 408 139746 20.516 137.048927359607 306 0 23 1246 8014
vector 6642  Network.dyn_peer[15]  lookupStabilitySig:vector  ETV
6642	434664 10004 408 139746 20.516 137.048927359607 306 -1.875 1 150.25 119.71875
vector 6643  Network.dyn_peer[15]  lookupTimeSig:vector  ETV
6643	444668 9557 408 139746 20.516 137.048927359607 306 0 2 139.9 88.53
vector 6689  Network.dyn_peer[31]  lookupHopsSig:vector  ETV
6689	873970 8210 433 139261 20.532 135.970601130672 279 0 16 1194 7590
vector 6690  Network.dyn_peer[31]  lookupStabilitySig:vector  ETV
6690	882180 9120 433 139261 20.532 135.970601130672 279 -1 1 129.81944443285 99.190007700228
vector 6691  Network.dyn_peer[31]  lookupTimeSig:vector  ETV
6691	891300 8726 433 139261 20.532 135.970601130672 279 0 1.5 132.4 81.92
vector 6677  Network.dyn_peer[27]  lookupHopsSig:vector  ETV
6677	762500 8865 484 139366 20.628 136.115259613094 302 0 18 1337 8955
vector 6678  Network.dyn_peer[27]  lookupStabilitySig:vector  ETV
6678	771365 9840 484 139366 20.628 136.115259613094 302 -1.25 1 134.875 107.671875
vector 6679  Network.dyn_peer[27]  lookupTimeSig:vector  ETV
6679	781205 9423 484 139366 20.628 136.115259613094 302 0 1.9 148.3 97.01
