version 2
run Stability-70-20130528-00:54:44-21385
attr configname Stability
attr datetime 20130528-00:54:44
attr experiment Stability
attr inifile omnetpp.ini
attr iterationvars $0=1e-1
attr iterationvars2 "$0=1e-1, $repetition=0"
attr measurement $0=1e-1
attr network Network
attr processid 21385
attr repetition 0
attr replication #0
attr resultdir results
attr runnumber 70
attr seedset 70

vector 6886  Network.churner  inGoingSizeSig:vector  ETV
vector 6817  Network.dyn_peer[9]  lookupHopsSig:vector  ETV
vector 6818  Network.dyn_peer[9]  lookupStabilitySig:vector  ETV
vector 6819  Network.dyn_peer[9]  lookupTimeSig:vector  ETV
vector 6829  Network.dyn_peer[13]  lookupHopsSig:vector  ETV
vector 6830  Network.dyn_peer[13]  lookupStabilitySig:vector  ETV
vector 6831  Network.dyn_peer[13]  lookupTimeSig:vector  ETV
vector 6883  Network.dyn_peer[31]  lookupHopsSig:vector  ETV
vector 6884  Network.dyn_peer[31]  lookupStabilitySig:vector  ETV
vector 6885  Network.dyn_peer[31]  lookupTimeSig:vector  ETV
vector 6796  Network.dyn_peer[2]  lookupHopsSig:vector  ETV
vector 6797  Network.dyn_peer[2]  lookupStabilitySig:vector  ETV
vector 6798  Network.dyn_peer[2]  lookupTimeSig:vector  ETV
vector 6808  Network.dyn_peer[6]  lookupHopsSig:vector  ETV
vector 6809  Network.dyn_peer[6]  lookupStabilitySig:vector  ETV
vector 6810  Network.dyn_peer[6]  lookupTimeSig:vector  ETV
vector 6811  Network.dyn_peer[7]  lookupHopsSig:vector  ETV
vector 6812  Network.dyn_peer[7]  lookupStabilitySig:vector  ETV
vector 6813  Network.dyn_peer[7]  lookupTimeSig:vector  ETV
vector 6820  Network.dyn_peer[10]  lookupHopsSig:vector  ETV
vector 6821  Network.dyn_peer[10]  lookupStabilitySig:vector  ETV
vector 6822  Network.dyn_peer[10]  lookupTimeSig:vector  ETV
vector 6823  Network.dyn_peer[11]  lookupHopsSig:vector  ETV
vector 6824  Network.dyn_peer[11]  lookupStabilitySig:vector  ETV
vector 6825  Network.dyn_peer[11]  lookupTimeSig:vector  ETV
vector 6841  Network.dyn_peer[17]  lookupHopsSig:vector  ETV
vector 6842  Network.dyn_peer[17]  lookupStabilitySig:vector  ETV
vector 6843  Network.dyn_peer[17]  lookupTimeSig:vector  ETV
vector 6847  Network.dyn_peer[19]  lookupHopsSig:vector  ETV
vector 6848  Network.dyn_peer[19]  lookupStabilitySig:vector  ETV
vector 6849  Network.dyn_peer[19]  lookupTimeSig:vector  ETV
vector 6859  Network.dyn_peer[23]  lookupHopsSig:vector  ETV
vector 6860  Network.dyn_peer[23]  lookupStabilitySig:vector  ETV
vector 6861  Network.dyn_peer[23]  lookupTimeSig:vector  ETV
vector 6790  Network.dyn_peer[0]  lookupHopsSig:vector  ETV
vector 6791  Network.dyn_peer[0]  lookupStabilitySig:vector  ETV
vector 6792  Network.dyn_peer[0]  lookupTimeSig:vector  ETV
vector 6793  Network.dyn_peer[1]  lookupHopsSig:vector  ETV
vector 6794  Network.dyn_peer[1]  lookupStabilitySig:vector  ETV
vector 6795  Network.dyn_peer[1]  lookupTimeSig:vector  ETV
vector 6802  Network.dyn_peer[4]  lookupHopsSig:vector  ETV
vector 6803  Network.dyn_peer[4]  lookupStabilitySig:vector  ETV
vector 6804  Network.dyn_peer[4]  lookupTimeSig:vector  ETV
vector 6826  Network.dyn_peer[12]  lookupHopsSig:vector  ETV
vector 6827  Network.dyn_peer[12]  lookupStabilitySig:vector  ETV
vector 6828  Network.dyn_peer[12]  lookupTimeSig:vector  ETV
vector 6838  Network.dyn_peer[16]  lookupHopsSig:vector  ETV
vector 6839  Network.dyn_peer[16]  lookupStabilitySig:vector  ETV
vector 6840  Network.dyn_peer[16]  lookupTimeSig:vector  ETV
vector 6868  Network.dyn_peer[26]  lookupHopsSig:vector  ETV
vector 6869  Network.dyn_peer[26]  lookupStabilitySig:vector  ETV
vector 6870  Network.dyn_peer[26]  lookupTimeSig:vector  ETV
vector 6871  Network.dyn_peer[27]  lookupHopsSig:vector  ETV
vector 6872  Network.dyn_peer[27]  lookupStabilitySig:vector  ETV
vector 6873  Network.dyn_peer[27]  lookupTimeSig:vector  ETV
vector 6874  Network.dyn_peer[28]  lookupHopsSig:vector  ETV
vector 6875  Network.dyn_peer[28]  lookupStabilitySig:vector  ETV
vector 6876  Network.dyn_peer[28]  lookupTimeSig:vector  ETV
vector 6880  Network.dyn_peer[30]  lookupHopsSig:vector  ETV
vector 6881  Network.dyn_peer[30]  lookupStabilitySig:vector  ETV
vector 6882  Network.dyn_peer[30]  lookupTimeSig:vector  ETV
vector 6799  Network.dyn_peer[3]  lookupHopsSig:vector  ETV
vector 6800  Network.dyn_peer[3]  lookupStabilitySig:vector  ETV
vector 6801  Network.dyn_peer[3]  lookupTimeSig:vector  ETV
vector 6835  Network.dyn_peer[15]  lookupHopsSig:vector  ETV
vector 6836  Network.dyn_peer[15]  lookupStabilitySig:vector  ETV
vector 6837  Network.dyn_peer[15]  lookupTimeSig:vector  ETV
vector 6844  Network.dyn_peer[18]  lookupHopsSig:vector  ETV
vector 6845  Network.dyn_peer[18]  lookupStabilitySig:vector  ETV
vector 6846  Network.dyn_peer[18]  lookupTimeSig:vector  ETV
vector 6850  Network.dyn_peer[20]  lookupHopsSig:vector  ETV
vector 6851  Network.dyn_peer[20]  lookupStabilitySig:vector  ETV
vector 6852  Network.dyn_peer[20]  lookupTimeSig:vector  ETV
vector 6853  Network.dyn_peer[21]  lookupHopsSig:vector  ETV
vector 6854  Network.dyn_peer[21]  lookupStabilitySig:vector  ETV
vector 6855  Network.dyn_peer[21]  lookupTimeSig:vector  ETV
vector 6805  Network.dyn_peer[5]  lookupHopsSig:vector  ETV
vector 6806  Network.dyn_peer[5]  lookupStabilitySig:vector  ETV
vector 6807  Network.dyn_peer[5]  lookupTimeSig:vector  ETV
vector 6832  Network.dyn_peer[14]  lookupHopsSig:vector  ETV
vector 6833  Network.dyn_peer[14]  lookupStabilitySig:vector  ETV
vector 6834  Network.dyn_peer[14]  lookupTimeSig:vector  ETV
vector 6856  Network.dyn_peer[22]  lookupHopsSig:vector  ETV
vector 6857  Network.dyn_peer[22]  lookupStabilitySig:vector  ETV
vector 6858  Network.dyn_peer[22]  lookupTimeSig:vector  ETV
vector 6862  Network.dyn_peer[24]  lookupHopsSig:vector  ETV
vector 6863  Network.dyn_peer[24]  lookupStabilitySig:vector  ETV
vector 6864  Network.dyn_peer[24]  lookupTimeSig:vector  ETV
vector 6877  Network.dyn_peer[29]  lookupHopsSig:vector  ETV
vector 6878  Network.dyn_peer[29]  lookupStabilitySig:vector  ETV
vector 6879  Network.dyn_peer[29]  lookupTimeSig:vector  ETV
vector 6865  Network.dyn_peer[25]  lookupHopsSig:vector  ETV
vector 6866  Network.dyn_peer[25]  lookupStabilitySig:vector  ETV
vector 6867  Network.dyn_peer[25]  lookupTimeSig:vector  ETV
vector 6814  Network.dyn_peer[8]  lookupHopsSig:vector  ETV
vector 6815  Network.dyn_peer[8]  lookupStabilitySig:vector  ETV
vector 6816  Network.dyn_peer[8]  lookupTimeSig:vector  ETV
6790	205	20.2001	2
6790	346	20.4001	1
6790	719	21.003705285456	5
6790	937	21.212804790955	2
6790	1408	21.612804790955	3
6790	2243	22.221025287098	2
6790	2254	22.222777413894	6
6790	3144	23.023091929844	9
6790	3172	23.030743070129	9
6790	3583	23.330493476605	3
6790	3586	23.331263341166	3
6790	3625	23.419643572335	2
6790	3633	23.42004078694	12
6790	3990	23.72024078694	3
6790	5220	24.72024078694	9
6790	5970	25.32666995809	6
6790	6211	25.527466983965	2
6790	6559	25.828348691167	2
6790	6588	25.850107364632	1
6790	7198	26.452161699107	6
6790	8563	27.552161699107	11
6790	8951	27.856943774167	2
6790	9093	27.96237598552	0
6790	9865	28.698553597631	6
6790	10270	29.10085568326	4
6790	10453	29.30714452159	1
6790	10958	29.720587713591	4
6790	11120	29.880473557208	2
6790	11425	30.120995634892	3
6790	12520	31.030173646812	9
6790	13221	31.630173646812	5
6790	13716	32.030497014228	3
6790	13778	32.100579042504	4
6790	15038	33.200846996937	12
6790	15313	33.500846996937	2
6790	15551	33.806164439361	2
6790	15711	33.994546074797	2
6790	15845	34.094746074797	1
6790	16945	35.094746074797	10
6790	17085	35.216101971224	3
6790	17184	35.307039765558	1
6790	17469	35.507239765558	3
6790	17663	35.707239765558	1
6790	17999	36.011082329541	3
6790	18870	36.720579150338	7
6790	19155	36.965348518565	6
6790	19427	37.131753935357	3
6790	19509	37.172978593058	1
6790	19513	37.174738126943	1
6790	20197	37.778377617777	6
6790	20708	38.278377617777	4
6790	21428	38.784579164446	4
6790	21826	39.105826276404	2
6790	21834	39.113788707316	2
6790	23391	40.5232493817	17
6790	25390	42.2232493817	18
6790	25912	42.726593435877	6
6790	25917	42.726708271398	5
6790	26228	42.935756524835	1
6790	26234	42.939896153786	1
6790	26254	42.94778589035	0
6790	26711	43.34778589035	4
6790	26956	43.564696082454	1
6790	27365	43.972271950761	3
6790	27558	44.179782472223	5
6790	27873	44.479858903895	4
6790	28149	44.680058903895	2
6790	29372	45.580058903895	9
6790	29382	45.58935864543	4
6790	30793	46.582207605998	4
6790	31441	47.182207605998	5
6790	32179	47.890312010996	6
6790	32713	48.298620139046	3
6790	32823	48.384075620966	3
6790	32992	48.561055604877	3
6790	33531	48.961556967551	4
6790	33887	49.261556967551	2
6790	34375	49.665775202871	3
6790	34607	49.869452621903	1
6790	35124	50.311269587799	8
6790	35300	50.477386372253	5
6790	35641	50.783737050807	3
6790	36521	51.471268616111	3
6790	37184	51.971268616111	4
6790	37531	52.279193393242	2
6790	38025	52.685726576301	3
6790	38491	53.095724691222	5
6790	38918	53.495724691222	3
6790	39413	53.90193815753	3
6790	40042	54.411597620874	4
6790	40400	54.692777516757	4
6790	40812	55.018467529368	5
6790	40872	55.099991191461	3
6790	41037	55.225787143142	1
6790	41326	55.504103709993	3
6790	41413	55.598735777387	3
6790	41444	55.61699862632	5
6790	41756	55.921075382378	3
6790	42102	56.234614174741	9
6790	42106	56.236338918538	8
6790	42812	56.836749503724	7
6790	43629	57.524933400131	2
6790	43692	57.578381242884	5
6790	44170	57.981981045484	4
6790	45041	58.834673522336	3
6790	45814	59.544149255808	8
6790	46790	60.344149255808	7
6790	47194	60.651950273762	2
6790	47881	61.155718583025	6
6790	48263	61.457581348964	2
6790	49656	62.561569988634	7
6790	51313	63.861569988634	12
6790	51846	64.364337139788	4
6790	52161	64.619083690637	5
6790	52502	65.019432912823	3
6790	53308	65.721202939774	7
6790	53914	66.221202939774	4
6790	54520	66.721402939774	5
6790	55272	67.321402939774	5
6790	55711	67.633283404401	2
6790	56057	67.874980288603	1
6790	56126	67.919590983454	1
6790	56648	68.326516120466	4
6790	57400	68.926516120466	5
6790	57915	69.233868078698	2
6790	58072	69.337401457549	2
6790	58460	69.634189172659	3
6790	58470	69.636464399298	3
6790	58604	69.739195034639	1
6790	58861	69.939195034639	1
6790	59504	70.547897240035	5
6790	59989	71.051313705995	5
6790	60513	71.557593396746	4
6790	60534	71.618746533317	5
6790	61418	72.319909315635	7
6790	61788	72.619909315635	2
6790	62130	72.928448373558	2
6790	63507	74.031197035402	10
6790	64105	74.537775354186	4
6790	64417	74.844145838742	2
6790	65222	75.551439437468	8
6790	65430	75.751439437468	1
6790	65718	75.958411555632	1
6790	66167	76.359227004949	3
6790	66601	76.774443105031	3
6790	67049	77.183526925759	3
6790	67184	77.292511982498	3
6790	67264	77.384517307714	1
6790	67637	77.693919777722	3
6790	67936	77.893919777722	1
6790	68386	78.297896401561	3
6790	69340	79.098096401561	9
6790	69660	79.398096401561	2
6790	69884	79.601302342431	1
6790	70234	79.904482810944	2
6790	71250	80.604682810944	8
6790	71631	80.904682810944	2
6790	72068	81.212554028343	2
6790	72420	81.513013317281	3
6790	72805	81.813013317281	2
6790	73412	82.313247743177	4
6790	73756	82.615138836852	2
6790	73978	82.824276558763	1
6790	75001	83.624767411876	9
6790	75747	84.234424826545	5
6790	76074	84.543589986674	3
6790	76295	84.743589986674	1
6790	76960	85.248042612293	5
6790	78016	86.148703676057	9
6790	78362	86.448703676057	2
6790	78669	86.757846810871	2
6790	78919	86.96526757958	1
6790	78924	86.965480778614	1
6790	79338	87.277964173958	7
6790	79449	87.367157037489	4
6790	81143	88.667357037489	14
6790	81406	88.867357037489	1
6790	81762	89.069176561436	2
6790	82597	89.669376561436	6
6790	83659	90.568524896149	2
6790	83668	90.569376561436	8
6790	83922	90.774002837306	2
6790	84460	91.274002837306	5
6790	84683	91.485658165142	1
6790	85077	91.792620034306	3
6790	85318	91.992620034306	1
6790	85945	92.571147873589	4
6790	85967	92.601255290838	6
6790	86694	93.305915680089	6
6790	86789	93.37771750788	7
6790	86907	93.483741297701	6
6790	87275	93.792162570389	3
6790	87751	94.200039048627	3
6790	87975	94.38806124625	3
6790	88138	94.50787094157	2
6790	88289	94.657880095193	2
6790	88331	94.689549654376	2
6790	88560	94.891349203901	2
6790	89495	95.691349203901	8
6790	90684	96.593968707474	8
6790	90970	96.802432161913	1
6790	91237	97.006799852516	1
6790	91419	97.109306440079	3
6790	91694	97.30771409099	2
6790	92191	97.712627342278	3
6790	93207	98.614513330496	10
6790	93631	98.923709869949	2
6790	94371	99.462867911257	3
6790	94751	99.762867911257	2
6790	95440	100.366274661376	5
6790	95988	100.873051548533	4
6790	96560	101.377525087602	4
6790	96573	101.388650951105	4
6790	96991	101.684912650717	2
6790	97125	101.795226282411	3
6790	97289	101.896163113472	1
6790	97799	102.296163113472	4
6790	98338	102.701196919133	5
6790	98875	103.101196919133	3
6790	99262	103.405169331566	2
6790	99992	104.114818167367	6
6790	100279	104.361387900905	5
6790	100930	104.962781773839	6
6790	101446	105.362781773839	4
6790	101709	105.566515123409	2
6790	101969	105.766515123409	1
6790	102782	106.469086363956	6
6790	103137	106.77732391874	2
6790	103471	107.079316209586	2
6790	103884	107.483301502457	3
6790	104063	107.604460100744	0
6790	104129	107.679386905925	9
6790	104204	107.738331659807	3
6790	104452	107.904936186653	2
6790	104523	107.986029923018	5
6790	104552	107.993045925206	0
6790	105709	108.993045925206	9
6790	105904	109.200229448686	1
6790	106849	110.006845717656	8
6790	106884	110.0174405373	3
6790	107092	110.2100708647	1
6790	107155	110.220540407138	1
6790	107816	110.737144828671	5
6790	107836	110.769420585138	5
6790	107843	110.769520585138	5
6790	108013	110.869720585138	1
6790	108659	111.369720585138	4
6790	109033	111.680724725151	2
6790	109323	111.921901525606	2
6790	109965	112.435636124881	4
6790	110270	112.635836124881	2
6790	111372	113.635836124881	10
6790	111543	113.750083377278	2
6790	111987	114.14643284281	4
6790	112001	114.156569614306	4
6790	112734	114.755297394143	5
6790	113116	115.06197395872	2
6790	113276	115.264038954995	1
6790	113546	115.55819743426	15
6790	113767	115.772426210046	4
6790	114637	116.577718192136	9
6790	114863	116.777718192136	1
6790	115371	117.283371758649	4
6790	115756	117.684653456762	3
6790	115867	117.769603934215	1
6790	115949	117.85702403429	1
6790	116307	118.163023638734	3
6790	116512	118.363023638734	1
6790	116761	118.566947485759	2
6790	117334	119.06930378991	5
6790	117679	119.36930378991	2
6790	118025	119.670116408903	2
6790	118971	120.472584505356	9
6790	120137	121.500528424231	4
6790	120502	121.800528424231	2
6790	121026	122.200890854739	3
6790	122094	123.007055281088	7
6790	122131	123.023780342804	7
6790	122384	123.224503001964	2
6790	122797	123.53080218895	3
6790	123268	123.93080218895	3
6790	123959	124.43949072263	4
6790	124080	124.546783804353	1
6790	124561	124.84918263029	3
6790	124991	125.149882851488	3
6790	125375	125.349882851488	1
6790	126229	126.063600378869	1
6790	126350	126.158405962577	8
6790	126473	126.265411028667	2
6790	126593	126.371667758459	1
6790	126679	126.470451767689	1
6790	126935	126.677006332953	3
6790	127620	127.377006332953	6
6790	128005	127.779590765158	3
6790	128621	128.29339852342	4
6790	129131	128.701318124025	4
6790	129488	129.001318124025	2
6790	129890	129.40576238654	3
6790	130185	129.706250240734	3
6790	130393	129.906250240734	1
6790	131012	130.508282693613	5
6790	132339	131.514451095201	10
6790	133227	132.214451095201	6
6790	133339	132.321661332244	0
6790	133727	132.623040498666	2
6790	134148	133.031797817496	3
6790	135341	133.931997817496	10
6791	205	20.2001	0.75
6791	346	20.4001	0.875
6791	719	21.003705285456	0.375
6791	937	21.212804790955	0.75
6791	1408	21.612804790955	0.625
6791	2243	22.221025287098	0.75
6791	2254	22.222777413894	0.25
6791	3144	23.023091929844	-0.125
6791	3172	23.030743070129	-0.125
6791	3583	23.330493476605	0.625
6791	3586	23.331263341166	0.625
6791	3625	23.419643572335	0.75
6791	3633	23.42004078694	-0.5
6791	3990	23.72024078694	0.625
6791	5220	24.72024078694	-0.125
6791	5970	25.32666995809	0.25
6791	6211	25.527466983965	0.75
6791	6559	25.828348691167	0.75
6791	6588	25.850107364632	0.875
6791	7198	26.452161699107	0.25
6791	8563	27.552161699107	-0.375
6791	8951	27.856943774167	0.75
6791	9093	27.96237598552	1
6791	9865	28.698553597631	0.25
6791	10270	29.10085568326	0.5
6791	10453	29.30714452159	0.875
6791	10958	29.720587713591	0.5
6791	11120	29.880473557208	0.75
6791	11425	30.120995634892	0.625
6791	12520	31.030173646812	-0.125
6791	13221	31.630173646812	0.375
6791	13716	32.030497014228	0.625
6791	13778	32.100579042504	0.5
6791	15038	33.200846996937	-0.5
6791	15313	33.500846996937	0.75
6791	15551	33.806164439361	0.75
6791	15711	33.994546074797	0.75
6791	15845	34.094746074797	0.875
6791	16945	35.094746074797	-0.25
6791	17085	35.216101971224	0.625
6791	17184	35.307039765558	0.875
6791	17469	35.507239765558	0.625
6791	17663	35.707239765558	0.875
6791	17999	36.011082329541	0.625
6791	18870	36.720579150338	0.125
6791	19155	36.965348518565	0.25
6791	19427	37.131753935357	0.625
6791	19509	37.172978593058	0.875
6791	19513	37.174738126943	0.875
6791	20197	37.778377617777	0.25
6791	20708	38.278377617777	0.5
6791	21428	38.784579164446	0.5
6791	21826	39.105826276404	0.75
6791	21834	39.113788707316	0.75
6791	23391	40.5232493817	-1.125
6791	25390	42.2232493817	-1.25
6791	25912	42.726593435877	0.25
6791	25917	42.726708271398	0.375
6791	26228	42.935756524835	0.875
6791	26234	42.939896153786	0.875
6791	26254	42.94778589035	1
6791	26711	43.34778589035	0.5
6791	26956	43.564696082454	0.875
6791	27365	43.972271950761	0.625
6791	27558	44.179782472223	0.375
6791	27873	44.479858903895	0.5
6791	28149	44.680058903895	0.75
6791	29372	45.580058903895	-0.125
6791	29382	45.58935864543	0.5
6791	30793	46.582207605998	0.5
6791	31441	47.182207605998	0.375
6791	32179	47.890312010996	0.25
6791	32713	48.298620139046	0.625
6791	32823	48.384075620966	0.625
6791	32992	48.561055604877	0.625
6791	33531	48.961556967551	0.5
6791	33887	49.261556967551	0.75
6791	34375	49.665775202871	0.625
6791	34607	49.869452621903	0.875
6791	35124	50.311269587799	0
6791	35300	50.477386372253	0.375
6791	35641	50.783737050807	0.625
6791	36521	51.471268616111	0.625
6791	37184	51.971268616111	0.5
6791	37531	52.279193393242	0.75
6791	38025	52.685726576301	0.625
6791	38491	53.095724691222	0.375
6791	38918	53.495724691222	0.625
6791	39413	53.90193815753	0.625
6791	40042	54.411597620874	0.5
6791	40400	54.692777516757	0.5
6791	40812	55.018467529368	0.375
6791	40872	55.099991191461	0.625
6791	41037	55.225787143142	0.875
6791	41326	55.504103709993	0.625
6791	41413	55.598735777387	0.625
6791	41444	55.61699862632	0.375
6791	41756	55.921075382378	0.625
6791	42102	56.234614174741	-0.125
6791	42106	56.236338918538	0
6791	42812	56.836749503724	0.125
6791	43629	57.524933400131	0.75
6791	43692	57.578381242884	0.375
6791	44170	57.981981045484	0.5
6791	45041	58.834673522336	0.625
6791	45814	59.544149255808	0
6791	46790	60.344149255808	0.125
6791	47194	60.651950273762	0.75
6791	47881	61.155718583025	0.25
6791	48263	61.457581348964	0.75
6791	49656	62.561569988634	0.125
6791	51313	63.861569988634	-0.5
6791	51846	64.364337139788	0.5
6791	52161	64.619083690637	0.375
6791	52502	65.019432912823	0.625
6791	53308	65.721202939774	0.125
6791	53914	66.221202939774	0.5
6791	54520	66.721402939774	0.44444441795349
6791	55272	67.321402939774	0.375
6791	55711	67.633283404401	0.75
6791	56057	67.874980288603	0.875
6791	56126	67.919590983454	0.875
6791	56648	68.326516120466	0.5
6791	57400	68.926516120466	0.375
6791	57915	69.233868078698	0.75
6791	58072	69.337401457549	0.75
6791	58460	69.634189172659	0.625
6791	58470	69.636464399298	0.625
6791	58604	69.739195034639	0.875
6791	58861	69.939195034639	0.875
6791	59504	70.547897240035	0.375
6791	59989	71.051313705995	0.375
6791	60513	71.557593396746	0.5
6791	60534	71.618746533317	0.375
6791	61418	72.319909315635	0.125
6791	61788	72.619909315635	0.75
6791	62130	72.928448373558	0.75
6791	63507	74.031197035402	-0.25
6791	64105	74.537775354186	0.5
6791	64417	74.844145838742	0.75
6791	65222	75.551439437468	0
6791	65430	75.751439437468	0.875
6791	65718	75.958411555632	0.875
6791	66167	76.359227004949	0.625
6791	66601	76.774443105031	0.625
6791	67049	77.183526925759	0.625
6791	67184	77.292511982498	0.625
6791	67264	77.384517307714	0.875
6791	67637	77.693919777722	0.625
6791	67936	77.893919777722	0.875
6791	68386	78.297896401561	0.625
6791	69340	79.098096401561	-0.125
6791	69660	79.398096401561	0.75
6791	69884	79.601302342431	0.875
6791	70234	79.904482810944	0.75
6791	71250	80.604682810944	0
6791	71631	80.904682810944	0.75
6791	72068	81.212554028343	0.75
6791	72420	81.513013317281	0.625
6791	72805	81.813013317281	0.75
6791	73412	82.313247743177	0.5
6791	73756	82.615138836852	0.75
6791	73978	82.824276558763	0.875
6791	75001	83.624767411876	-0.125
6791	75747	84.234424826545	0.375
6791	76074	84.543589986674	0.625
6791	76295	84.743589986674	0.875
6791	76960	85.248042612293	0.375
6791	78016	86.148703676057	-0.125
6791	78362	86.448703676057	0.75
6791	78669	86.757846810871	0.75
6791	78919	86.96526757958	0.875
6791	78924	86.965480778614	0.88888888806105
6791	79338	87.277964173958	0.125
6791	79449	87.367157037489	0.5
6791	81143	88.667357037489	-0.75
6791	81406	88.867357037489	0.875
6791	81762	89.069176561436	0.75
6791	82597	89.669376561436	0.25
6791	83659	90.568524896149	0.75
6791	83668	90.569376561436	0
6791	83922	90.774002837306	0.75
6791	84460	91.274002837306	0.375
6791	84683	91.485658165142	0.875
6791	85077	91.792620034306	0.625
6791	85318	91.992620034306	0.875
6791	85945	92.571147873589	0.5
6791	85967	92.601255290838	0.25
6791	86694	93.305915680089	0.25
6791	86789	93.37771750788	0.125
6791	86907	93.483741297701	0.25
6791	87275	93.792162570389	0.625
6791	87751	94.200039048627	0.625
6791	87975	94.38806124625	0.625
6791	88138	94.50787094157	0.75
6791	88289	94.657880095193	0.75
6791	88331	94.689549654376	0.75
6791	88560	94.891349203901	0.75
6791	89495	95.691349203901	0
6791	90684	96.593968707474	0
6791	90970	96.802432161913	0.875
6791	91237	97.006799852516	0.875
6791	91419	97.109306440079	0.625
6791	91694	97.30771409099	0.75
6791	92191	97.712627342278	0.625
6791	93207	98.614513330496	-0.25
6791	93631	98.923709869949	0.75
6791	94371	99.462867911257	0.625
6791	94751	99.762867911257	0.75
6791	95440	100.366274661376	0.375
6791	95988	100.873051548533	0.5
6791	96560	101.377525087602	0.5
6791	96573	101.388650951105	0.5
6791	96991	101.684912650717	0.75
6791	97125	101.795226282411	0.625
6791	97289	101.896163113472	0.875
6791	97799	102.296163113472	0.5
6791	98338	102.701196919133	0.375
6791	98875	103.101196919133	0.625
6791	99262	103.405169331566	0.75
6791	99992	104.114818167367	0.25
6791	100279	104.361387900905	0.375
6791	100930	104.962781773839	0.25
6791	101446	105.362781773839	0.5
6791	101709	105.566515123409	0.75
6791	101969	105.766515123409	0.875
6791	102782	106.469086363956	0.25
6791	103137	106.77732391874	0.75
6791	103471	107.079316209586	0.75
6791	103884	107.483301502457	0.625
6791	104063	107.604460100744	1
6791	104129	107.679386905925	-0.125
6791	104204	107.738331659807	0.625
6791	104452	107.904936186653	0.75
6791	104523	107.986029923018	0.375
6791	104552	107.993045925206	1
6791	105709	108.993045925206	-0.125
6791	105904	109.200229448686	0.875
6791	106849	110.006845717656	0
6791	106884	110.0174405373	0.625
6791	107092	110.2100708647	0.875
6791	107155	110.220540407138	0.875
6791	107816	110.737144828671	0.375
6791	107836	110.769420585138	0.375
6791	107843	110.769520585138	0.375
6791	108013	110.869720585138	0.875
6791	108659	111.369720585138	0.5
6791	109033	111.680724725151	0.75
6791	109323	111.921901525606	0.75
6791	109965	112.435636124881	0.5
6791	110270	112.635836124881	0.75
6791	111372	113.635836124881	-0.25
6791	111543	113.750083377278	0.75
6791	111987	114.14643284281	0.5
6791	112001	114.156569614306	0.5
6791	112734	114.755297394143	0.375
6791	113116	115.06197395872	0.75
6791	113276	115.264038954995	0.875
6791	113546	115.55819743426	-0.875
6791	113767	115.772426210046	0.5
6791	114637	116.577718192136	-0.125
6791	114863	116.777718192136	0.875
6791	115371	117.283371758649	0.5
6791	115756	117.684653456762	0.625
6791	115867	117.769603934215	0.875
6791	115949	117.85702403429	0.875
6791	116307	118.163023638734	0.625
6791	116512	118.363023638734	0.875
6791	116761	118.566947485759	0.75
6791	117334	119.06930378991	0.375
6791	117679	119.36930378991	0.75
6791	118025	119.670116408903	0.75
6791	118971	120.472584505356	-0.125
6791	120137	121.500528424231	0.5
6791	120502	121.800528424231	0.75
6791	121026	122.200890854739	0.625
6791	122094	123.007055281088	0.125
6791	122131	123.023780342804	0.125
6791	122384	123.224503001964	0.75
6791	122797	123.53080218895	0.625
6791	123268	123.93080218895	0.625
6791	123959	124.43949072263	0.5
6791	124080	124.546783804353	0.875
6791	124561	124.84918263029	0.625
6791	124991	125.149882851488	0.625
6791	125375	125.349882851488	0.875
6791	126229	126.063600378869	0.875
6791	126350	126.158405962577	0
6791	126473	126.265411028667	0.75
6791	126593	126.371667758459	0.875
6791	126679	126.470451767689	0.875
6791	126935	126.677006332953	0.625
6791	127620	127.377006332953	0.25
6791	128005	127.779590765158	0.625
6791	128621	128.29339852342	0.5
6791	129131	128.701318124025	0.5
6791	129488	129.001318124025	0.75
6791	129890	129.40576238654	0.625
6791	130185	129.706250240734	0.625
6791	130393	129.906250240734	0.875
6791	131012	130.508282693613	0.375
6791	132339	131.514451095201	-0.25
6791	133227	132.214451095201	0.25
6791	133339	132.321661332244	1
6791	133727	132.623040498666	0.75
6791	134148	133.031797817496	0.625
6791	135341	133.931997817496	-0.25
6792	205	20.2001	0.2
6792	346	20.4001	0.2
6792	719	21.003705285456	0.6
6792	937	21.212804790955	0.2
6792	1408	21.612804790955	0.4
6792	2243	22.221025287098	0.3
6792	2254	22.222777413894	0.6
6792	3144	23.023091929844	0.8
6792	3172	23.030743070129	0.8
6792	3583	23.330493476605	0.3
6792	3586	23.331263341166	0.3
6792	3625	23.419643572335	0.2
6792	3633	23.42004078694	1.1
6792	3990	23.72024078694	0.3
6792	5220	24.72024078694	1
6792	5970	25.32666995809	0.6
6792	6211	25.527466983965	0.2
6792	6559	25.828348691167	0.3
6792	6588	25.850107364632	0.2
6792	7198	26.452161699107	0.6
6792	8563	27.552161699107	1.1
6792	8951	27.856943774167	0.3
6792	9093	27.96237598552	0.1
6792	9865	28.698553597631	0.7
6792	10270	29.10085568326	0.4
6792	10453	29.30714452159	0.2
6792	10958	29.720587713591	0.4
6792	11120	29.880473557208	0.3
6792	11425	30.120995634892	0.4
6792	12520	31.030173646812	0.9
6792	13221	31.630173646812	0.6
6792	13716	32.030497014228	0.4
6792	13778	32.100579042504	0.5
6792	15038	33.200846996937	1.1
6792	15313	33.500846996937	0.3
6792	15551	33.806164439361	0.3
6792	15711	33.994546074797	0.3
6792	15845	34.094746074797	0.1
6792	16945	35.094746074797	1
6792	17085	35.216101971224	0.4
6792	17184	35.307039765558	0.2
6792	17469	35.507239765558	0.2
6792	17663	35.707239765558	0.2
6792	17999	36.011082329541	0.3
6792	18870	36.720579150338	0.7
6792	19155	36.965348518565	0.6
6792	19427	37.131753935357	0.4
6792	19509	37.172978593058	0.2
6792	19513	37.174738126943	0.2
6792	20197	37.778377617777	0.6
6792	20708	38.278377617777	0.5
6792	21428	38.784579164446	0.5
6792	21826	39.105826276404	0.3
6792	21834	39.113788707316	0.3
6792	23391	40.5232493817	1.4
6792	25390	42.2232493817	1.7
6792	25912	42.726593435877	0.5
6792	25917	42.726708271398	0.5
6792	26228	42.935756524835	0.2
6792	26234	42.939896153786	0.2
6792	26254	42.94778589035	0
6792	26711	43.34778589035	0.4
6792	26956	43.564696082454	0.2
6792	27365	43.972271950761	0.4
6792	27558	44.179782472223	0.5
6792	27873	44.479858903895	0.5
6792	28149	44.680058903895	0.2
6792	29372	45.580058903895	0.9
6792	29382	45.58935864543	0.5
6792	30793	46.582207605998	0.4
6792	31441	47.182207605998	0.6
6792	32179	47.890312010996	0.7
6792	32713	48.298620139046	0.4
6792	32823	48.384075620966	0.4
6792	32992	48.561055604877	0.4
6792	33531	48.961556967551	0.4
6792	33887	49.261556967551	0.3
6792	34375	49.665775202871	0.4
6792	34607	49.869452621903	0.2
6792	35124	50.311269587799	0.7
6792	35300	50.477386372253	0.6
6792	35641	50.783737050807	0.3
6792	36521	51.471268616111	0.3
6792	37184	51.971268616111	0.5
6792	37531	52.279193393242	0.3
6792	38025	52.685726576301	0.4
6792	38491	53.095724691222	0.4
6792	38918	53.495724691222	0.4
6792	39413	53.90193815753	0.4
6792	40042	54.411597620874	0.5
6792	40400	54.692777516757	0.5
6792	40812	55.018467529368	0.6
6792	40872	55.099991191461	0.4
6792	41037	55.225787143142	0.2
6792	41326	55.504103709993	0.4
6792	41413	55.598735777387	0.4
6792	41444	55.61699862632	0.6
6792	41756	55.921075382378	0.4
6792	42102	56.234614174741	1
6792	42106	56.236338918538	0.9
6792	42812	56.836749503724	0.6
6792	43629	57.524933400131	0.3
6792	43692	57.578381242884	0.6
6792	44170	57.981981045484	0.4
6792	45041	58.834673522336	0.4
6792	45814	59.544149255808	0.7
6792	46790	60.344149255808	0.8
6792	47194	60.651950273762	0.3
6792	47881	61.155718583025	0.5
6792	48263	61.457581348964	0.3
6792	49656	62.561569988634	0.7
6792	51313	63.861569988634	1.3
6792	51846	64.364337139788	0.5
6792	52161	64.619083690637	0.6
6792	52502	65.019432912823	0.4
6792	53308	65.721202939774	0.7
6792	53914	66.221202939774	0.5
6792	54520	66.721402939774	0.5
6792	55272	67.321402939774	0.6
6792	55711	67.633283404401	0.3
6792	56057	67.874980288603	0.2
6792	56126	67.919590983454	0.2
6792	56648	68.326516120466	0.4
6792	57400	68.926516120466	0.6
6792	57915	69.233868078698	0.3
6792	58072	69.337401457549	0.3
6792	58460	69.634189172659	0.4
6792	58470	69.636464399298	0.4
6792	58604	69.739195034639	0.1
6792	58861	69.939195034639	0.2
6792	59504	70.547897240035	0.6
6792	59989	71.051313705995	0.5
6792	60513	71.557593396746	0.5
6792	60534	71.618746533317	0.6
6792	61418	72.319909315635	0.7
6792	61788	72.619909315635	0.3
6792	62130	72.928448373558	0.3
6792	63507	74.031197035402	1.1
6792	64105	74.537775354186	0.5
6792	64417	74.844145838742	0.3
6792	65222	75.551439437468	0.7
6792	65430	75.751439437468	0.2
6792	65718	75.958411555632	0.2
6792	66167	76.359227004949	0.4
6792	66601	76.774443105031	0.4
6792	67049	77.183526925759	0.4
6792	67184	77.292511982498	0.4