version 2
run Stability-80-20130528-00:55:28-21385
attr configname Stability
attr datetime 20130528-00:55:28
attr experiment Stability
attr inifile omnetpp.ini
attr iterationvars $0=1e-2
attr iterationvars2 "$0=1e-2, $repetition=0"
attr measurement $0=1e-2
attr network Network
attr processid 21385
attr repetition 0
attr replication #0
attr resultdir results
attr runnumber 80
attr seedset 80

vector 7856  Network.churner  inGoingSizeSig:vector  ETV
vector 7787  Network.dyn_peer[9]  lookupHopsSig:vector  ETV
vector 7788  Network.dyn_peer[9]  lookupStabilitySig:vector  ETV
vector 7789  Network.dyn_peer[9]  lookupTimeSig:vector  ETV
vector 7808  Network.dyn_peer[16]  lookupHopsSig:vector  ETV
vector 7809  Network.dyn_peer[16]  lookupStabilitySig:vector  ETV
vector 7810  Network.dyn_peer[16]  lookupTimeSig:vector  ETV
vector 7826  Network.dyn_peer[22]  lookupHopsSig:vector  ETV
vector 7827  Network.dyn_peer[22]  lookupStabilitySig:vector  ETV
vector 7828  Network.dyn_peer[22]  lookupTimeSig:vector  ETV
vector 7760  Network.dyn_peer[0]  lookupHopsSig:vector  ETV
vector 7761  Network.dyn_peer[0]  lookupStabilitySig:vector  ETV
vector 7762  Network.dyn_peer[0]  lookupTimeSig:vector  ETV
vector 7763  Network.dyn_peer[1]  lookupHopsSig:vector  ETV
vector 7764  Network.dyn_peer[1]  lookupStabilitySig:vector  ETV
vector 7765  Network.dyn_peer[1]  lookupTimeSig:vector  ETV
vector 7766  Network.dyn_peer[2]  lookupHopsSig:vector  ETV
vector 7767  Network.dyn_peer[2]  lookupStabilitySig:vector  ETV
vector 7768  Network.dyn_peer[2]  lookupTimeSig:vector  ETV
vector 7784  Network.dyn_peer[8]  lookupHopsSig:vector  ETV
vector 7785  Network.dyn_peer[8]  lookupStabilitySig:vector  ETV
vector 7786  Network.dyn_peer[8]  lookupTimeSig:vector  ETV
vector 7802  Network.dyn_peer[14]  lookupHopsSig:vector  ETV
vector 7803  Network.dyn_peer[14]  lookupStabilitySig:vector  ETV
vector 7804  Network.dyn_peer[14]  lookupTimeSig:vector  ETV
vector 7811  Network.dyn_peer[17]  lookupHopsSig:vector  ETV
vector 7812  Network.dyn_peer[17]  lookupStabilitySig:vector  ETV
vector 7813  Network.dyn_peer[17]  lookupTimeSig:vector  ETV
vector 7823  Network.dyn_peer[21]  lookupHopsSig:vector  ETV
vector 7824  Network.dyn_peer[21]  lookupStabilitySig:vector  ETV
vector 7825  Network.dyn_peer[21]  lookupTimeSig:vector  ETV
vector 7844  Network.dyn_peer[28]  lookupHopsSig:vector  ETV
vector 7845  Network.dyn_peer[28]  lookupStabilitySig:vector  ETV
vector 7846  Network.dyn_peer[28]  lookupTimeSig:vector  ETV
vector 7769  Network.dyn_peer[3]  lookupHopsSig:vector  ETV
vector 7770  Network.dyn_peer[3]  lookupStabilitySig:vector  ETV
vector 7771  Network.dyn_peer[3]  lookupTimeSig:vector  ETV
vector 7772  Network.dyn_peer[4]  lookupHopsSig:vector  ETV
vector 7773  Network.dyn_peer[4]  lookupStabilitySig:vector  ETV
vector 7774  Network.dyn_peer[4]  lookupTimeSig:vector  ETV
vector 7796  Network.dyn_peer[12]  lookupHopsSig:vector  ETV
vector 7797  Network.dyn_peer[12]  lookupStabilitySig:vector  ETV
vector 7798  Network.dyn_peer[12]  lookupTimeSig:vector  ETV
vector 7799  Network.dyn_peer[13]  lookupHopsSig:vector  ETV
vector 7800  Network.dyn_peer[13]  lookupStabilitySig:vector  ETV
vector 7801  Network.dyn_peer[13]  lookupTimeSig:vector  ETV
vector 7814  Network.dyn_peer[18]  lookupHopsSig:vector  ETV
vector 7815  Network.dyn_peer[18]  lookupStabilitySig:vector  ETV
vector 7816  Network.dyn_peer[18]  lookupTimeSig:vector  ETV
vector 7820  Network.dyn_peer[20]  lookupHopsSig:vector  ETV
vector 7821  Network.dyn_peer[20]  lookupStabilitySig:vector  ETV
vector 7822  Network.dyn_peer[20]  lookupTimeSig:vector  ETV
vector 7835  Network.dyn_peer[25]  lookupHopsSig:vector  ETV
vector 7836  Network.dyn_peer[25]  lookupStabilitySig:vector  ETV
vector 7837  Network.dyn_peer[25]  lookupTimeSig:vector  ETV
vector 7841  Network.dyn_peer[27]  lookupHopsSig:vector  ETV
vector 7842  Network.dyn_peer[27]  lookupStabilitySig:vector  ETV
vector 7843  Network.dyn_peer[27]  lookupTimeSig:vector  ETV
vector 7853  Network.dyn_peer[31]  lookupHopsSig:vector  ETV
vector 7854  Network.dyn_peer[31]  lookupStabilitySig:vector  ETV
vector 7855  Network.dyn_peer[31]  lookupTimeSig:vector  ETV
vector 7778  Network.dyn_peer[6]  lookupHopsSig:vector  ETV
vector 7779  Network.dyn_peer[6]  lookupStabilitySig:vector  ETV
vector 7780  Network.dyn_peer[6]  lookupTimeSig:vector  ETV
vector 7781  Network.dyn_peer[7]  lookupHopsSig:vector  ETV
vector 7782  Network.dyn_peer[7]  lookupStabilitySig:vector  ETV
vector 7783  Network.dyn_peer[7]  lookupTimeSig:vector  ETV
vector 7790  Network.dyn_peer[10]  lookupHopsSig:vector  ETV
vector 7791  Network.dyn_peer[10]  lookupStabilitySig:vector  ETV
vector 7792  Network.dyn_peer[10]  lookupTimeSig:vector  ETV
vector 7793  Network.dyn_peer[11]  lookupHopsSig:vector  ETV
vector 7794  Network.dyn_peer[11]  lookupStabilitySig:vector  ETV
vector 7795  Network.dyn_peer[11]  lookupTimeSig:vector  ETV
vector 7838  Network.dyn_peer[26]  lookupHopsSig:vector  ETV
vector 7839  Network.dyn_peer[26]  lookupStabilitySig:vector  ETV
vector 7840  Network.dyn_peer[26]  lookupTimeSig:vector  ETV
vector 7847  Network.dyn_peer[29]  lookupHopsSig:vector  ETV
vector 7848  Network.dyn_peer[29]  lookupStabilitySig:vector  ETV
vector 7849  Network.dyn_peer[29]  lookupTimeSig:vector  ETV
vector 7775  Network.dyn_peer[5]  lookupHopsSig:vector  ETV
vector 7776  Network.dyn_peer[5]  lookupStabilitySig:vector  ETV
vector 7777  Network.dyn_peer[5]  lookupTimeSig:vector  ETV
vector 7805  Network.dyn_peer[15]  lookupHopsSig:vector  ETV
vector 7806  Network.dyn_peer[15]  lookupStabilitySig:vector  ETV
vector 7807  Network.dyn_peer[15]  lookupTimeSig:vector  ETV
vector 7817  Network.dyn_peer[19]  lookupHopsSig:vector  ETV
vector 7818  Network.dyn_peer[19]  lookupStabilitySig:vector  ETV
vector 7819  Network.dyn_peer[19]  lookupTimeSig:vector  ETV
vector 7829  Network.dyn_peer[23]  lookupHopsSig:vector  ETV
vector 7830  Network.dyn_peer[23]  lookupStabilitySig:vector  ETV
vector 7831  Network.dyn_peer[23]  lookupTimeSig:vector  ETV
vector 7832  Network.dyn_peer[24]  lookupHopsSig:vector  ETV
vector 7833  Network.dyn_peer[24]  lookupStabilitySig:vector  ETV
vector 7834  Network.dyn_peer[24]  lookupTimeSig:vector  ETV
vector 7850  Network.dyn_peer[30]  lookupHopsSig:vector  ETV
vector 7851  Network.dyn_peer[30]  lookupStabilitySig:vector  ETV
vector 7852  Network.dyn_peer[30]  lookupTimeSig:vector  ETV
7760	139	20.10001	1
7760	595	20.80001	6
7760	878	21.111479406629	2
7760	1676	21.829152488136	6
7760	2191	22.238035031101	4
7760	2591	22.538035031101	2
7760	3399	23.119511706824	3
7760	3907	23.519511706824	3
7760	4173	23.726885141114	2
7760	4534	24.02940671569	2
7760	5330	24.73138677368	7
7760	5705	25.03138677368	2
7760	6128	25.343895695558	2
7760	6362	25.551427925805	1
7760	6762	25.853678819068	3
7760	7219	26.353678819068	4
7760	7433	26.560658445645	1
7760	7864	26.864458307093	3
7760	8183	27.164458307093	2
7760	8922	27.673523441653	5
7760	9282	28.037000829083	2
7760	9461	28.175641962778	5
7760	9631	28.356468537485	2
7760	9873	28.558910304497	2
7760	10402	29.058910304497	4
7760	10642	29.265419076348	1
7760	10698	29.293053128119	3
7760	10967	29.572292936008	2
7760	10971	29.576579127242	2
7760	11442	29.996523575082	6
7760	11644	30.180085142402	5
7760	11651	30.186046474629	5
7760	12377	30.793983270374	7
7760	12950	31.299535587219	1
7760	14012	32.199535587219	10
7760	14433	32.607482665396	3
7760	14446	32.609413355495	3
7760	14703	32.915877139128	2
7760	14705	32.91682852887	2
7760	15400	33.51693852887	6
7760	16190	34.21693852887	7
7760	16666	34.735790124985	6
7760	17067	35.118490280154	9
7760	17442	35.420464045525	3
7760	18610	36.420464045525	9
7760	19362	37.066094063102	3
7760	19707	37.371830231801	8
7760	19849	37.470137508337	3
7760	20003	37.624960780049	12
7760	20395	37.925070780049	3
7760	21963	39.225070780049	13
7760	22705	39.929019557674	6
7760	23057	40.247440512736	3
7760	23308	40.45369693647	4
7760	23655	40.751228821581	4
7760	24066	41.058779436579	3
7760	24435	41.358779436579	3
7760	24873	41.769202454618	3
7760	25188	42.087223442476	2
7760	25437	42.291088005297	2
7760	25878	42.691088005297	3
7760	26281	43.009311382128	1
7760	26831	43.497678723376	8
7760	27193	43.797788723376	3
7760	27857	44.297788723376	4
7760	28891	45.104780472855	8
7760	29042	45.208646472962	1
7760	29157	45.315957513093	8
7760	29385	45.513325447094	3
7760	30250	46.215297838262	7
7760	30780	46.615297838262	4
7760	31524	47.234865710074	5
7760	31796	47.441896977645	2
7760	31869	47.53441093256	9
7760	32064	47.743298012646	1
7760	33231	48.75168299928	11
7760	34158	49.55168299928	9
7760	34559	49.855972821755	2
7760	35315	50.561396294299	6
7760	35500	50.768783946059	1
7760	35926	51.178155525544	5
7760	36260	51.478155525544	3
7760	36891	52.078707014635	7
7760	37169	52.281151155734	4
7760	37415	52.485847016394	3
7760	37868	52.892652860105	4
7760	38354	53.292652860105	3
7760	38649	53.494520202754	1
7760	38885	53.707993450378	2
7760	38938	53.789847054157	2
7760	39064	53.892552258872	1
7760	39349	54.192552258872	2
7760	39953	54.774603861971	4
7760	40000	54.794254153169	6
7760	40482	55.202500429294	3
7760	40486	55.203864690238	3
7760	41047	55.612562333495	4
7760	41612	56.112562333495	4
7760	41820	56.315902850421	1
7760	42016	56.517774094657	2
7760	42465	56.889470933994	5
7760	42504	56.912772877881	5
7760	42784	57.115086440247	2
7760	43254	57.515086440247	3
7760	43269	57.515196440247	0
7760	43818	57.915196440247	3
7760	44314	58.306125587855	3
7760	44548	58.506235587855	2
7760	45653	59.406235587855	9
7760	46287	59.90689988342	4
7760	46984	60.415789601034	4
7760	47013	60.421259554048	4
7760	47309	60.629745139562	2
7760	47844	61.129745139562	4
7760	48111	61.355118739997	2
7760	48954	61.955228739997	7
7760	49959	62.755228739997	8
7760	50279	63.051853606694	1
7760	50302	63.06428853429	2
7760	51178	63.772778936253	7
7760	51647	64.172778936253	3
7760	52420	64.860017334472	5
7760	52739	65.162489500488	2
7760	52991	65.37985528108	11
7760	53634	65.884229658838	5
7760	54221	66.484229658838	6
7760	54845	67.087107772403	5
7760	55116	67.388680809335	2
7760	55831	68.088790809335	9
7760	56270	68.488790809335	3
7760	56832	68.99133141423	4
7760	57020	69.201184933222	2
7760	57526	69.708058616194	4
7760	57630	69.803494374978	6
7760	57888	70.0040377559	1
7760	57892	70.004142194792	1
7760	58718	70.612397388872	6
7760	59655	71.318854353169	4
7760	60634	72.118854353169	10
7760	60960	72.364986027152	6
7760	61456	72.773015868125	4
7760	61677	72.973015868125	1
7760	61878	73.177030446498	1
7760	62889	74.077140446498	10
7760	63464	74.577140446498	4
7760	63866	74.957249757517	2
7760	63894	74.964748255061	2
7760	64155	75.186917599338	6
7760	64203	75.268420343522	2
7760	64661	75.669532973156	4
7760	65048	75.969532973156	2
7760	65318	76.170873101723	1
7760	65576	76.377478060598	1
7760	66535	77.084510980131	7
7760	66846	77.384510980131	2
7760	68158	78.479748284487	8
7760	68667	78.879748284487	3
7760	68987	79.095842209172	1
7760	69323	79.296330412009	1
7760	69633	79.505970119359	2
7760	70090	79.905970119359	3
7760	70944	80.508778668216	5
7760	70951	80.515072782551	5
7760	71594	81.112371387712	5
7760	71992	81.524027198344	9
7760	72433	81.931262611761	4
7760	72972	82.431262611761	4
7760	73193	82.638108887074	1
7760	73445	82.840410411083	1
7760	73969	83.242875982171	4
7760	75175	84.342875982171	11
7760	75721	84.851885498109	5
7760	76267	85.351885498109	4
7760	77140	86.053249598456	7
7760	77728	86.56080600142	4
7760	78564	87.16091600142	6
7760	79863	88.16091600142	10
7760	80446	88.665206767078	4
7760	80663	88.804709479449	6
7760	80996	89.113178332302	3
7760	81185	89.313178332302	1
7760	81729	89.822279674907	4
7760	82128	90.131433540082	2
7760	82362	90.341300942525	1
7760	83309	91.051392886638	8
7760	84887	92.251392886638	12
7760	85279	92.55374648875	3
7760	85622	92.85374648875	2
7760	85737	92.962740770824	1
7760	86751	93.862740770824	9
7760	87585	94.570499387776	7
7760	87913	94.874107752233	2
7760	88389	95.277100401676	3
7760	88988	95.813468158586	6
7760	89830	96.413578158586	6
7760	90065	96.613578158586	1
7760	90741	97.116805695341	5
7760	91076	97.416805695341	2
7760	91775	98.0177876136	5
7760	92549	98.639663654708	6
7760	93409	99.444572975242	8
7760	93884	99.852105015204	4
7760	94602	100.452105015204	5
7760	95416	101.05419646796	6
7760	95890	101.458121974886	3
7760	96379	101.860545319683	4
7760	97582	102.860545319683	10
7760	98271	103.564306437469	6
7760	98461	103.6852744985	2
7760	98533	103.764506704244	1
7760	98865	103.987542360459	2
7760	99460	104.391226148276	5
7760	100022	104.891226148276	4
7760	100356	105.197870851062	2
7760	100425	105.275031713051	3
7760	102013	106.682949934007	17
7760	102338	106.982949934007	2
7760	102401	107.009103668131	1
7760	102774	107.32648862646	2
7760	102900	107.486919991053	5
7760	102908	107.490829940006	5
7760	103937	108.390939940006	9
7760	104662	109.090939940006	6
7760	104931	109.308836925329	2
7760	105109	109.491135096337	2
7760	105281	109.614068471872	2
7760	105854	110.11779085881	5
7760	106084	110.31779085881	1
7760	107037	111.209519802084	5
7760	107543	111.613121929696	3
7760	107559	111.621114783742	13
7760	107670	111.724095891569	4
7760	107801	111.831659844519	1
7760	109038	112.915359464879	4
7760	109547	113.415359464879	4
7760	109754	113.617976829872	1
7760	110712	114.433599278704	2
7760	111343	114.93524108377	14
7760	111702	115.240929240943	7
7760	111908	115.449497698193	1
7760	112129	115.6387358876	6
7760	112360	115.872191385143	3
7760	112435	115.942944395654	2
7760	112473	115.974925560962	1
7760	112797	116.189476036766	3
7760	112830	116.253657522539	2
7760	112832	116.255945715505	9
7760	112984	116.3807924287	4
7760	113702	116.987566216074	6
7760	114757	117.887566216074	8
7760	115278	118.409316483936	2
7760	115334	118.497022146708	5
7760	115535	118.716846867138	2
7760	115680	118.904781585069	3
7760	116142	119.313341452618	4
7760	116810	119.913341452618	5
7760	117307	120.254965846668	2
7760	117552	120.456600425645	1
7760	117816	120.660680885309	2
7760	118623	121.360680885309	6
7760	119510	122.060705225098	7
7760	119689	122.208087107207	6
7760	119827	122.285002664962	1
7760	119841	122.313083266981	1
7760	120373	122.81500010851	6
7760	120689	123.11500010851	2
7760	120897	123.281021764722	1
7760	121002	123.360132183218	1
7760	121368	123.660242183218	3
7760	121692	123.960242183218	3
7760	122366	124.562696031464	5
7760	123480	125.562806031464	11
7760	123956	125.962806031464	4
7760	124179	126.122578303003	1
7760	124742	126.527298305753	3
7760	124760	126.530722790464	0
7760	125680	127.230722790464	6
7760	126247	127.654382569244	5
7760	126694	128.032882386917	9
7760	126876	128.163163053081	1
7760	126928	128.222647850306	4
7760	127110	128.357877683047	8
7760	127274	128.464043158134	2
7760	127473	128.633703747369	6
7760	128228	129.242413200753	6
7760	129143	130.042413200753	7
7760	129929	130.642523200753	6
7760	130428	131.042523200753	3
7760	132146	132.420365059553	12
7760	132335	132.556552876551	15
7760	132621	132.765724861662	2
7760	133546	133.465724861662	6
7760	134747	134.365834861662	11
7760	135648	135.065834861662	6
7760	136315	135.668841701693	6
7760	136706	135.976038829861	2
7760	136810	136.117238613045	2
7760	136899	136.17385316495	1
7760	136918	136.180646123152	1
7760	136984	136.254035358591	16
7760	137066	136.324205705722	1
7760	137075	136.333222596022	1
7760	137215	136.465657535251	1
7760	137265	136.502924101933	1
7761	139	20.10001	0.875
7761	595	20.80001	0.25
7761	878	21.111479406629	0.75
7761	1676	21.829152488136	0.25
7761	2191	22.238035031101	0.5
7761	2591	22.538035031101	0.75
7761	3399	23.119511706824	0.625
7761	3907	23.519511706824	0.625
7761	4173	23.726885141114	0.75
7761	4534	24.02940671569	0.75
7761	5330	24.73138677368	0.125
7761	5705	25.03138677368	0.75
7761	6128	25.343895695558	0.75
7761	6362	25.551427925805	0.875
7761	6762	25.853678819068	0.625
7761	7219	26.353678819068	0.5
7761	7433	26.560658445645	0.875
7761	7864	26.864458307093	0.625
7761	8183	27.164458307093	0.75
7761	8922	27.673523441653	0.375
7761	9282	28.037000829083	0.75
7761	9461	28.175641962778	0.375
7761	9631	28.356468537485	0.75
7761	9873	28.558910304497	0.75
7761	10402	29.058910304497	0.5
7761	10642	29.265419076348	0.875
7761	10698	29.293053128119	0.625
7761	10967	29.572292936008	0.75
7761	10971	29.576579127242	0.75
7761	11442	29.996523575082	0.25
7761	11644	30.180085142402	0.375
7761	11651	30.186046474629	0.375
7761	12377	30.793983270374	0.125
7761	12950	31.299535587219	0.875
7761	14012	32.199535587219	-0.25
7761	14433	32.607482665396	0.625
7761	14446	32.609413355495	0.625
7761	14703	32.915877139128	0.75
7761	14705	32.91682852887	0.75
7761	15400	33.51693852887	0.33333331346512
7761	16190	34.21693852887	0.125
7761	16666	34.735790124985	0.25
7761	17067	35.118490280154	-0.125
7761	17442	35.420464045525	0.625
7761	18610	36.420464045525	-0.125
7761	19362	37.066094063102	0.625
7761	19707	37.371830231801	0
7761	19849	37.470137508337	0.625
7761	20003	37.624960780049	-0.5
7761	20395	37.925070780049	0.625
7761	21963	39.225070780049	-0.625
7761	22705	39.929019557674	0.25
7761	23057	40.247440512736	0.625
7761	23308	40.45369693647	0.5
7761	23655	40.751228821581	0.5
7761	24066	41.058779436579	0.625
7761	24435	41.358779436579	0.625
7761	24873	41.769202454618	0.625
7761	25188	42.087223442476	0.75
7761	25437	42.291088005297	0.75
7761	25878	42.691088005297	0.625
7761	26281	43.009311382128	0.875
7761	26831	43.497678723376	0
7761	27193	43.797788723376	0.625
7761	27857	44.297788723376	0.5
7761	28891	45.104780472855	0
7761	29042	45.208646472962	0.875
7761	29157	45.315957513093	0
7761	29385	45.513325447094	0.625
7761	30250	46.215297838262	0.125
7761	30780	46.615297838262	0.5
7761	31524	47.234865710074	0.375
7761	31796	47.441896977645	0.75
7761	31869	47.53441093256	-0.125
7761	32064	47.743298012646	0.875
7761	33231	48.75168299928	-0.375
7761	34158	49.55168299928	-0.125
7761	34559	49.855972821755	0.75
7761	35315	50.561396294299	0.25
7761	35500	50.768783946059	0.875
7761	35926	51.178155525544	0.375
7761	36260	51.478155525544	0.625
7761	36891	52.078707014635	0.125
7761	37169	52.281151155734	0.5
7761	37415	52.485847016394	0.625
7761	37868	52.892652860105	0.5
7761	38354	53.292652860105	0.625
7761	38649	53.494520202754	0.875
7761	38885	53.707993450378	0.75
7761	38938	53.789847054157	0.75
7761	39064	53.892552258872	0.875
7761	39349	54.192552258872	0.75
7761	39953	54.774603861971	0.5
7761	40000	54.794254153169	0.25
7761	40482	55.202500429294	0.625
7761	40486	55.203864690238	0.625
7761	41047	55.612562333495	0.5
7761	41612	56.112562333495	0.5
7761	41820	56.315902850421	0.875
7761	42016	56.517774094657	0.75
7761	42465	56.889470933994	0.44444441795349
7761	42504	56.912772877881	0.375
7761	42784	57.115086440247	0.75
7761	43254	57.515086440247	0.625
7761	43269	57.515196440247	1
7761	43818	57.915196440247	0.625
7761	44314	58.306125587855	0.625
7761	44548	58.506235587855	0.75
7761	45653	59.406235587855	-0.125
7761	46287	59.90689988342	0.5
7761	46984	60.415789601034	0.5
7761	47013	60.421259554048	0.5
7761	47309	60.629745139562	0.75
7761	47844	61.129745139562	0.5
7761	48111	61.355118739997	0.75
7761	48954	61.955228739997	0.125
7761	49959	62.755228739997	0
7761	50279	63.051853606694	0.875
7761	50302	63.06428853429	0.75
7761	51178	63.772778936253	0.125
7761	51647	64.172778936253	0.625
7761	52420	64.860017334472	0.375
7761	52739	65.162489500488	0.75
7761	52991	65.37985528108	-0.375
7761	53634	65.884229658838	0.375
7761	54221	66.484229658838	0.25
7761	54845	67.087107772403	0.375
7761	55116	67.388680809335	0.75
7761	55831	68.088790809335	-0.125
7761	56270	68.488790809335	0.625
7761	56832	68.99133141423	0.5
7761	57020	69.201184933222	0.75
7761	57526	69.708058616194	0.5
7761	57630	69.803494374978	0.25
7761	57888	70.0040377559	0.875
7761	57892	70.004142194792	0.875
7761	58718	70.612397388872	0.25
7761	59655	71.318854353169	0.5
7761	60634	72.118854353169	-0.25
7761	60960	72.364986027152	0.25
7761	61456	72.773015868125	0.5
7761	61677	72.973015868125	0.875
7761	61878	73.177030446498	0.875
7761	62889	74.077140446498	-0.25
7761	63464	74.577140446498	0.5
7761	63866	74.957249757517	0.75
7761	63894	74.964748255061	0.75
7761	64155	75.186917599338	0.25
7761	64203	75.268420343522	0.75
7761	64661	75.669532973156	0.5
7761	65048	75.969532973156	0.75
7761	65318	76.170873101723	0.875
7761	65576	76.377478060598	0.875
7761	66535	77.084510980131	0.125
7761	66846	77.384510980131	0.75
7761	68158	78.479748284487	0
7761	68667	78.879748284487	0.625
7761	68987	79.095842209172	0.875
7761	69323	79.296330412009	0.875
7761	69633	79.505970119359	0.75
7761	70090	79.905970119359	0.625
7761	70944	80.508778668216	0.375
7761	70951	80.515072782551	0.375
7761	71594	81.112371387712	0.375
7761	71992	81.524027198344	-0.125
7761	72433	81.931262611761	0.5
7761	72972	82.431262611761	0.5
7761	73193	82.638108887074	0.875
7761	73445	82.840410411083	0.875
7761	73969	83.242875982171	0.5
7761	75175	84.342875982171	-0.375
7761	75721	84.851885498109	0.375
7761	76267	85.351885498109	0.5
7761	77140	86.053249598456	0.125
7761	77728	86.56080600142	0.5
7761	78564	87.16091600142	0.25
7761	79863	88.16091600142	-0.25
7761	80446	88.665206767078	0.5
7761	80663	88.804709479449	0.25
7761	80996	89.113178332302	0.625
7761	81185	89.313178332302	0.875
7761	81729	89.822279674907	0.5
7761	82128	90.131433540082	0.75
7761	82362	90.341300942525	0.875
7761	83309	91.051392886638	0
7761	84887	92.251392886638	-0.5
7761	85279	92.55374648875	0.625
7761	85622	92.85374648875	0.75
7761	85737	92.962740770824	0.875
7761	86751	93.862740770824	-0.125
7761	87585	94.570499387776	0.125
7761	87913	94.874107752233	0.75
7761	88389	95.277100401676	0.625
7761	88988	95.813468158586	0.25
7761	89830	96.413578158586	0.25
7761	90065	96.613578158586	0.875
7761	90741	97.116805695341	0.375
7761	91076	97.416805695341	0.75
7761	91775	98.0177876136	0.375
7761	92549	98.639663654708	0.25
7761	93409	99.444572975242	0
7761	93884	99.852105015204	0.5
7761	94602	100.452105015204	0.375
7761	95416	101.05419646796	0.25
7761	95890	101.458121974886	0.625
7761	96379	101.860545319683	0.5
7761	97582	102.860545319683	-0.25
7761	98271	103.564306437469	0.25
7761	98461	103.6852744985	0.75
7761	98533	103.764506704244	0.875
7761	98865	103.987542360459	0.75
7761	99460	104.391226148276	0.375
7761	100022	104.891226148276	0.5
7761	100356	105.197870851062	0.75
7761	100425	105.275031713051	0.625
7761	102013	106.682949934007	-1.125
7761	102338	106.982949934007	0.75
7761	102401	107.009103668131	0.875
7761	102774	107.32648862646	0.75
7761	102900	107.486919991053	0.375
7761	102908	107.490829940006	0.375
7761	103937	108.390939940006	-0.125
7761	104662	109.090939940006	0.25
7761	104931	109.308836925329	0.75
7761	105109	109.491135096337	0.75
7761	105281	109.614068471872	0.75
7761	105854	110.11779085881	0.375
7761	106084	110.31779085881	0.875
7761	107037	111.209519802084	0.375
7761	107543	111.613121929696	0.625
7761	107559	111.621114783742	-0.625
7761	107670	111.724095891569	0.5
7761	107801	111.831659844519	0.875
7761	109038	112.915359464879	0.5
7761	109547	113.415359464879	0.5
7761	109754	113.617976829872	0.875
7761	110712	114.433599278704	0.75
7761	111343	114.93524108377	-0.75
7761	111702	115.240929240943	0.125
7761	111908	115.449497698193	0.875
7761	112129	115.6387358876	0.25
7761	112360	115.872191385143	0.625
7761	112435	115.942944395654	0.75
7761	112473	115.974925560962	0.875
7761	112797	116.189476036766	0.625
7761	112830	116.253657522539	0.75
7761	112832	116.255945715505	-0.125
7761	112984	116.3807924287	0.5
7761	113702	116.987566216074	0.25
7761	114757	117.887566216074	0
7761	115278	118.409316483936	0.75
7761	115334	118.497022146708	0.375
7761	115535	118.716846867138	0.75
7761	115680	118.904781585069	0.625
7761	116142	119.313341452618	0.5
7761	116810	119.913341452618	0.375
7761	117307	120.254965846668	0.75
7761	117552	120.456600425645	0.875
7761	117816	120.660680885309	0.75
7761	118623	121.360680885309	0.25
7761	119510	122.060705225098	0.125
7761	119689	122.208087107207	0.25
7761	119827	122.285002664962	0.875
7761	119841	122.313083266981	0.875
7761	120373	122.81500010851	0.25
7761	120689	123.11500010851	0.75
7761	120897	123.281021764722	0.875
7761	121002	123.360132183218	0.875
7761	121368	123.660242183218	0.625
7761	121692	123.960242183218	0.625
7761	122366	124.562696031464	0.375
7761	123480	125.562806031464	-0.375
7761	123956	125.962806031464	0.5
7761	124179	126.122578303003	0.875
7761	124742	126.527298305753	0.625
7761	124760	126.530722790464	1
7761	125680	127.230722790464	0.25
7761	126247	127.654382569244	0.375
7761	126694	128.032882386917	-0.125
7761	126876	128.163163053081	0.875
7761	126928	128.222647850306	0.5
7761	127110	128.357877683047	0
7761	127274	128.464043158134	0.75
7761	127473	128.633703747369	0.25
7761	128228	129.242413200753	0.25
7761	129143	130.042413200753	0.125
7761	129929	130.642523200753	0.25
7761	130428	131.042523200753	0.625
7761	132146	132.420365059553	-0.5
7761	132335	132.556552876551	-0.875
7761	132621	132.765724861662	0.75
7761	133546	133.465724861662	0.25
7761	134747	134.365834861662	-0.375
7761	135648	135.065834861662	0.25
7761	136315	135.668841701693	0.25
7761	136706	135.976038829861	0.75
7761	136810	136.117238613045	0.75
7761	136899	136.17385316495	0.875
7761	136918	136.180646123152	0.875
7761	136984	136.254035358591	-1
7761	137066	136.324205705722	0.875
7761	137075	136.333222596022	0.875
7761	137215	136.465657535251	0.875
7761	137265	136.502924101933	0.875
7762	139	20.10001	0.1
7762	595	20.80001	0.7
7762	878	21.111479406629	0.3
7762	1676	21.829152488136	0.7
7762	2191	22.238035031101	0.4
7762	2591	22.538035031101	0.3
7762	3399	23.119511706824	0.3
7762	3907	23.519511706824	0.4
7762	4173	23.726885141114	0.3
7762	4534	24.02940671569	0.3
7762	5330	24.73138677368	0.7
7762	5705	25.03138677368	0.3
7762	6128	25.343895695558	0.3
7762	6362	25.551427925805	0.2
7762	6762	25.853678819068	0.3
7762	7219	26.353678819068	0.5
7762	7433	26.560658445645	0.2
7762	7864	26.864458307093	0.3
7762	8183	27.164458307093	0.3
7762	8922	27.673523441653	0.5
7762	9282	28.037000829083	0.3
7762	9461	28.175641962778	0.5
7762	9631	28.356468537485	0.3
7762	9873	28.558910304497	0.2
7762	10402	29.058910304497	0.5
7762	10642	29.265419076348	0.2
7762	10698	29.293053128119	0.4
7762	10967	29.572292936008	0.3
7762	10971	29.576579127242	0.3
7762	11442	29.996523575082	0.7
7762	11644	30.180085142402	0.6
7762	11651	30.186046474629	0.6
7762	12377	30.793983270374	0.6
7762	12950	31.299535587219	0.1
7762	14012	32.199535587219	0.9
7762	14433	32.607482665396	0.4
7762	14446	32.609413355495	0.4
7762	14703	32.915877139128	0.3
7762	14705	32.91682852887	0.3
7762	15400	33.51693852887	0.6
7762	16190	34.21693852887	0.7
7762	16666	34.735790124985	0.7
7762	17067	35.118490280154	0.9
7762	17442	35.420464045525	0.3
7762	18610	36.420464045525	1
7762	19362	37.066094063102	0.4
7762	19707	37.371830231801	0.9
7762	19849	37.470137508337	0.4
7762	20003	37.624960780049	1.2
7762	20395	37.925070780049	0.3
7762	21963	39.225070780049	1.3
7762	22705	39.929019557674	0.7
7762	23057	40.247440512736	0.3
7762	23308	40.45369693647	0.5
7762	23655	40.751228821581	0.5
7762	24066	41.058779436579	0.3
7762	24435	41.358779436579	0.3
7762	24873	41.769202454618	0.4
7762	25188	42.087223442476	0.3
7762	25437	42.291088005297	0.2
7762	25878	42.691088005297	0.4
7762	26281	43.009311382128	0.2
7762	26831	43.497678723376	0.8
7762	27193	43.797788723376	0.3
7762	27857	44.297788723376	0.5
7762	28891	45.104780472855	0.8
7762	29042	45.208646472962	0.1
7762	29157	45.315957513093	0.9
7762	29385	45.513325447094	0.3
7762	30250	46.215297838262	0.7
7762	30780	46.615297838262	0.4
7762	31524	47.234865710074	0.6
7762	31796	47.441896977645	0.2
7762	31869	47.53441093256	0.9
7762	32064	47.743298012646	0.2
7762	33231	48.75168299928	1
7762	34158	49.55168299928	0.8
7762	34559	49.855972821755	0.3
7762	35315	50.561396294299	0.7
7762	35500	50.768783946059	0.2
7762	35926	51.178155525544	0.4
7762	36260	51.478155525544	0.3
7762	36891	52.078707014635	0.6
7762	37169	52.281151155734	0.4
7762	37415	52.485847016394	0.4
7762	37868	52.892652860105	0.4
7762	38354	53.292652860105	0.4
7762	38649	53.494520202754	0.2
7762	38885	53.707993450378	0.2
7762	38938	53.789847054157	0.3
7762	39064	53.892552258872	0.1
7762	39349	54.192552258872	0.3
7762	39953	54.774603861971	0.5
7762	40000	54.794254153169	0.6
7762	40482	55.202500429294	0.4
7762	40486	55.203864690238	0.4
7762	41047	55.612562333495	0.4
7762	41612	56.112562333495	0.5
7762	41820	56.315902850421	0.2
7762	42016	56.517774094657	0.2
7762	42465	56.889470933994	0.6
7762	42504	56.912772877881	0.5
7762	42784	57.115086440247	0.2
7762	43254	57.515086440247	0.4
7762	43269	57.515196440247	0
7762	43818	57.915196440247	0.4
7762	44314	58.306125587855	0.4
7762	44548	58.506235587855	0.2
7762	45653	59.406235587855	0.9
7762	46287	59.90689988342	0.5
7762	46984	60.415789601034	0.5
7762	47013	60.421259554048	0.5
7762	47309	60.629745139562	0.2
7762	47844	61.129745139562	0.5
7762	48111	61.355118739997	0.3
7762	48954	61.955228739997	0.6
7762	49959	62.755228739997	0.8
7762	50279	63.051853606694	0.2
7762	50302	63.06428853429	0.3
7762	51178	63.772778936253	0.7
7762	51647	64.172778936253	0.4
7762	52420	64.860017334472	0.6
7762	52739	65.162489500488	0.3
7762	52991	65.37985528108	1.2
7762	53634	65.884229658838	0.5
7762	54221	66.484229658838	0.6
7762	54845	67.087107772403	0.6
7762	55116	67.388680809335	0.3
7762	55831	68.088790809335	0.7
7762	56270	68.488790809335	0.4
7762	56832	68.99133141423	0.5
7762	57020	69.201184933222	0.3
7762	57526	69.708058616194	0.5
7762	57630	69.803494374978	0.7
7762	57888	70.0040377559	0.2
7762	57892	70.004142194792	0.2
7762	58718	70.612397388872	0.6
7762	59655	71.318854353169	0.4
7762	60634	72.118854353169	0.8
7762	60960	72.364986027152	0.6
7762	61456	72.773015868125	0.4
7762	61677	72.973015868125	0.2
7762	61878	73.177030446498	0.2
7762	62889	74.077140446498	0.9
7762	63464	74.577140446498	0.5
7762	63866	74.957249757517	0.3
7762	63894	74.964748255061	0.3
7762	64155	75.186917599338	0.6
7762	64203	75.268420343522	0.3
7762	64661	75.669532973156	0.4
7762	65048	75.969532973156	0.3