version 2
run Stability-26-20130528-00:51:48-21385
attr configname Stability
attr datetime 20130528-00:51:48
attr experiment Stability
attr inifile omnetpp.ini
attr iterationvars $0=1e4
attr iterationvars2 "$0=1e4, $repetition=6"
attr measurement $0=1e4
attr network Network
attr processid 21385
attr repetition 6
attr replication #6
attr resultdir results
attr runnumber 26
attr seedset 26

vector 2618  Network.churner  inGoingSizeSig:vector  ETV
vector 2522  Network.dyn_peer[0]  lookupHopsSig:vector  ETV
vector 2523  Network.dyn_peer[0]  lookupStabilitySig:vector  ETV
vector 2524  Network.dyn_peer[0]  lookupTimeSig:vector  ETV
vector 2525  Network.dyn_peer[1]  lookupHopsSig:vector  ETV
vector 2526  Network.dyn_peer[1]  lookupStabilitySig:vector  ETV
vector 2527  Network.dyn_peer[1]  lookupTimeSig:vector  ETV
vector 2528  Network.dyn_peer[2]  lookupHopsSig:vector  ETV
vector 2529  Network.dyn_peer[2]  lookupStabilitySig:vector  ETV
vector 2530  Network.dyn_peer[2]  lookupTimeSig:vector  ETV
vector 2531  Network.dyn_peer[3]  lookupHopsSig:vector  ETV
vector 2532  Network.dyn_peer[3]  lookupStabilitySig:vector  ETV
vector 2533  Network.dyn_peer[3]  lookupTimeSig:vector  ETV
vector 2534  Network.dyn_peer[4]  lookupHopsSig:vector  ETV
vector 2535  Network.dyn_peer[4]  lookupStabilitySig:vector  ETV
vector 2536  Network.dyn_peer[4]  lookupTimeSig:vector  ETV
vector 2537  Network.dyn_peer[5]  lookupHopsSig:vector  ETV
vector 2538  Network.dyn_peer[5]  lookupStabilitySig:vector  ETV
vector 2539  Network.dyn_peer[5]  lookupTimeSig:vector  ETV
vector 2540  Network.dyn_peer[6]  lookupHopsSig:vector  ETV
vector 2541  Network.dyn_peer[6]  lookupStabilitySig:vector  ETV
vector 2542  Network.dyn_peer[6]  lookupTimeSig:vector  ETV
vector 2543  Network.dyn_peer[7]  lookupHopsSig:vector  ETV
vector 2544  Network.dyn_peer[7]  lookupStabilitySig:vector  ETV
vector 2545  Network.dyn_peer[7]  lookupTimeSig:vector  ETV
vector 2546  Network.dyn_peer[8]  lookupHopsSig:vector  ETV
vector 2547  Network.dyn_peer[8]  lookupStabilitySig:vector  ETV
vector 2548  Network.dyn_peer[8]  lookupTimeSig:vector  ETV
vector 2549  Network.dyn_peer[9]  lookupHopsSig:vector  ETV
vector 2550  Network.dyn_peer[9]  lookupStabilitySig:vector  ETV
vector 2551  Network.dyn_peer[9]  lookupTimeSig:vector  ETV
vector 2552  Network.dyn_peer[10]  lookupHopsSig:vector  ETV
vector 2553  Network.dyn_peer[10]  lookupStabilitySig:vector  ETV
vector 2554  Network.dyn_peer[10]  lookupTimeSig:vector  ETV
vector 2555  Network.dyn_peer[11]  lookupHopsSig:vector  ETV
vector 2556  Network.dyn_peer[11]  lookupStabilitySig:vector  ETV
vector 2557  Network.dyn_peer[11]  lookupTimeSig:vector  ETV
vector 2558  Network.dyn_peer[12]  lookupHopsSig:vector  ETV
vector 2559  Network.dyn_peer[12]  lookupStabilitySig:vector  ETV
vector 2560  Network.dyn_peer[12]  lookupTimeSig:vector  ETV
vector 2561  Network.dyn_peer[13]  lookupHopsSig:vector  ETV
vector 2562  Network.dyn_peer[13]  lookupStabilitySig:vector  ETV
vector 2563  Network.dyn_peer[13]  lookupTimeSig:vector  ETV
vector 2564  Network.dyn_peer[14]  lookupHopsSig:vector  ETV
vector 2565  Network.dyn_peer[14]  lookupStabilitySig:vector  ETV
vector 2566  Network.dyn_peer[14]  lookupTimeSig:vector  ETV
vector 2567  Network.dyn_peer[15]  lookupHopsSig:vector  ETV
vector 2568  Network.dyn_peer[15]  lookupStabilitySig:vector  ETV
vector 2569  Network.dyn_peer[15]  lookupTimeSig:vector  ETV
vector 2570  Network.dyn_peer[16]  lookupHopsSig:vector  ETV
vector 2571  Network.dyn_peer[16]  lookupStabilitySig:vector  ETV
vector 2572  Network.dyn_peer[16]  lookupTimeSig:vector  ETV
vector 2573  Network.dyn_peer[17]  lookupHopsSig:vector  ETV
vector 2574  Network.dyn_peer[17]  lookupStabilitySig:vector  ETV
vector 2575  Network.dyn_peer[17]  lookupTimeSig:vector  ETV
vector 2576  Network.dyn_peer[18]  lookupHopsSig:vector  ETV
vector 2577  Network.dyn_peer[18]  lookupStabilitySig:vector  ETV
vector 2578  Network.dyn_peer[18]  lookupTimeSig:vector  ETV
vector 2579  Network.dyn_peer[19]  lookupHopsSig:vector  ETV
vector 2580  Network.dyn_peer[19]  lookupStabilitySig:vector  ETV
vector 2581  Network.dyn_peer[19]  lookupTimeSig:vector  ETV
vector 2582  Network.dyn_peer[20]  lookupHopsSig:vector  ETV
vector 2583  Network.dyn_peer[20]  lookupStabilitySig:vector  ETV
vector 2584  Network.dyn_peer[20]  lookupTimeSig:vector  ETV
vector 2585  Network.dyn_peer[21]  lookupHopsSig:vector  ETV
vector 2586  Network.dyn_peer[21]  lookupStabilitySig:vector  ETV
vector 2587  Network.dyn_peer[21]  lookupTimeSig:vector  ETV
vector 2588  Network.dyn_peer[22]  lookupHopsSig:vector  ETV
vector 2589  Network.dyn_peer[22]  lookupStabilitySig:vector  ETV
vector 2590  Network.dyn_peer[22]  lookupTimeSig:vector  ETV
vector 2591  Network.dyn_peer[23]  lookupHopsSig:vector  ETV
vector 2592  Network.dyn_peer[23]  lookupStabilitySig:vector  ETV
vector 2593  Network.dyn_peer[23]  lookupTimeSig:vector  ETV
vector 2594  Network.dyn_peer[24]  lookupHopsSig:vector  ETV
vector 2595  Network.dyn_peer[24]  lookupStabilitySig:vector  ETV
vector 2596  Network.dyn_peer[24]  lookupTimeSig:vector  ETV
vector 2597  Network.dyn_peer[25]  lookupHopsSig:vector  ETV
vector 2598  Network.dyn_peer[25]  lookupStabilitySig:vector  ETV
vector 2599  Network.dyn_peer[25]  lookupTimeSig:vector  ETV
vector 2600  Network.dyn_peer[26]  lookupHopsSig:vector  ETV
vector 2601  Network.dyn_peer[26]  lookupStabilitySig:vector  ETV
vector 2602  Network.dyn_peer[26]  lookupTimeSig:vector  ETV
vector 2603  Network.dyn_peer[27]  lookupHopsSig:vector  ETV
vector 2604  Network.dyn_peer[27]  lookupStabilitySig:vector  ETV
vector 2605  Network.dyn_peer[27]  lookupTimeSig:vector  ETV
vector 2606  Network.dyn_peer[28]  lookupHopsSig:vector  ETV
vector 2607  Network.dyn_peer[28]  lookupStabilitySig:vector  ETV
vector 2608  Network.dyn_peer[28]  lookupTimeSig:vector  ETV
vector 2609  Network.dyn_peer[29]  lookupHopsSig:vector  ETV
vector 2610  Network.dyn_peer[29]  lookupStabilitySig:vector  ETV
vector 2611  Network.dyn_peer[29]  lookupTimeSig:vector  ETV
vector 2612  Network.dyn_peer[30]  lookupHopsSig:vector  ETV
vector 2613  Network.dyn_peer[30]  lookupStabilitySig:vector  ETV
vector 2614  Network.dyn_peer[30]  lookupTimeSig:vector  ETV
vector 2615  Network.dyn_peer[31]  lookupHopsSig:vector  ETV
vector 2616  Network.dyn_peer[31]  lookupStabilitySig:vector  ETV
vector 2617  Network.dyn_peer[31]  lookupTimeSig:vector  ETV
2522	31	30.1	1
2522	40	30.336925336809	1
2522	48	30.578069628278	1
2522	53	30.78693112965	1
2522	1107	350.2	2
2522	1110	350.4	1
2522	1115	350.708599531215	2
2522	1120	350.925563182825	1
2522	2136	670.1	1
2522	2139	670.3	1
2522	2143	670.500952025393	1
2522	2149	670.714565200208	1
2522	3207	990.1	1
2522	3211	990.30223943575	1
2522	3217	990.603994185197	2
2522	3223	990.807922560656	1
2522	4269	1310	0
2522	4273	1310.204894691121	1
2522	4280	1310.428849056512	1
2522	4287	1310.732351725139	2
2522	5327	1630.1	1
2522	5330	1630.3	1
2522	5335	1630.601443266524	2
2522	5343	1630.814905995164	1
2522	6335	1950.1	1
2522	6338	1950.3	1
2522	6343	1950.602410053121	2
2522	6347	1950.809626525471	1
2522	7407	2270.1	1
2522	7410	2270.3	1
2522	7419	2270.616069372186	2
2522	7426	2270.832637083997	1
2522	8431	2590	0
2522	8434	2590.2	1
2522	8438	2590.407457285285	1
2522	8442	2590.612821893132	1
2522	9457	2910	0
2522	9462	2910.4	3
2522	9467	2910.709897748101	2
2522	9472	2910.920611320232	1
2522	10470	3230.2	2
2522	10474	3230.408065569312	1
2522	10478	3230.614372457996	1
2522	10487	3230.845731650722	1
2522	11503	3550.2	2
2522	11507	3550.5	2
2522	11515	3550.814093759882	2
2522	11525	3551.055431038354	1
2522	12549	3870.2	2
2522	12553	3870.5	2
2522	12559	3870.713275224056	1
2522	12563	3870.91583244604	1
2522	13569	4190.2	2
2522	13576	4190.608257121035	3
2522	13581	4190.913287507513	2
2522	13591	4191.147692872453	1
2522	14598	4510.1	1
2522	14604	4510.411717036163	2
2522	14610	4510.721250530563	2
2522	14615	4510.928779775889	1
2522	15628	4830.1	1
2522	15631	4830.3	1
2522	15635	4830.50617395706	1
2522	15639	4830.714241761923	1
2522	16658	5150.1	1
2522	16661	5150.3	1
2522	16666	5150.50744246419	1
2522	16671	5150.716284011151	1
2522	17676	5470.1	1
2522	17680	5470.4	2
2522	17684	5470.603674465273	1
2522	17693	5470.832367923794	1
2522	18743	5790.2	2
2522	18747	5790.400621216718	1
2522	18752	5790.705735634436	2
2522	18760	5790.924770471881	1
2522	19757	6110.2	2
2522	19761	6110.5	2
2522	19766	6110.803553788913	2
2522	19774	6111.01175339872	1
2522	20823	6430.1	1
2522	20827	6430.4	2
2522	20832	6430.608960264492	1
2522	20836	6430.815411346903	1
2522	21870	6750.1	1
2522	21873	6750.3	1
2522	21878	6750.511132642637	1
2522	21882	6750.718169362441	1
2522	22891	7070.1	1
2522	22895	7070.4	2
2522	22900	7070.609419091012	1
2522	22904	7070.81199028753	1
2522	23967	7390.2	2
2522	23970	7390.4	1
2522	23975	7390.611266143442	1
2522	23983	7390.930782529875	2
2522	25002	7710.2	2
2522	25007	7710.50001200752	2
2522	25011	7710.700855138962	1
2522	25015	7710.902754909069	1
2522	26035	8030.1	1
2522	26038	8030.3	1
2522	26042	8030.509525638832	1
2522	26046	8030.717240235038	1
2522	27074	8350.1	1
2522	27079	8350.400723131669	2
2522	27083	8350.603350289654	1
2522	27087	8350.811310527423	1
2522	28123	8670.2	2
2522	28128	8670.40748024535	1
2522	28135	8670.723975540836	2
2522	28140	8671.026525104587	2
2522	29174	8990.1	1
2522	29179	8990.401377794055	2
2522	29186	8990.708675829547	2
2522	29192	8991.017823497722	2
2522	30190	9310.1	1
2522	30194	9310.4	2
2522	30199	9310.604834658396	1
2522	30204	9310.807122230964	1
2522	31201	9630.2	2
2522	31204	9630.4	1
2522	31210	9630.613084149103	1
2522	31216	9630.922728066281	2
2522	32201	9950	0
2522	32206	9950.300509339661	2
2522	32213	9950.524177569269	1
2522	32223	9950.844584255431	2
2522	33224	10270.1	1
2522	33228	10270.4	2
2522	33237	10270.715752484032	2
2522	33244	10270.944016560249	1
2522	34267	10590.1	1
2522	34270	10590.3	1
2522	34274	10590.509193604462	1
2522	34280	10590.824795357032	2
2522	35309	10910.1	1
2522	35313	10910.4	2
2522	35324	10910.745750529761	2
2522	35330	10910.958191275348	1
2522	36380	11230.1	1
2522	36383	11230.3	1
2522	36387	11230.500972968479	1
2522	36391	11230.704201317158	1
2522	37427	11550.1	1
2522	37431	11550.300266812196	1
2522	37435	11550.504577282514	1
2522	37439	11550.712896572186	1
2522	38476	11870.1	1
2522	38479	11870.3	1
2522	38483	11870.501906665074	1
2522	38487	11870.706614141177	1
2522	39532	12190.1	1
2522	39537	12190.400809299482	2
2522	39543	12190.614976830487	1
2522	39550	12190.836871493894	1
2522	40583	12510.1	1
2522	40587	12510.4	2
2522	40593	12510.709795491529	2
2522	40600	12510.936456007313	1
2522	41646	12830.1	1
2522	41649	12830.3	1
2522	41653	12830.503815357494	1
2522	41657	12830.70639427836	1
2522	42648	13150.2	2
2522	42651	13150.4	1
2522	42657	13150.617149466317	1
2522	42661	13150.817467812247	1
2522	43695	13470.2	2
2522	43699	13470.5	2
2522	43704	13470.805586655263	2
2522	43711	13471.023889960064	1
2522	44773	13790.2	2
2522	44777	13790.409140188151	1
2522	44783	13790.719737143262	2
2522	44788	13791.02518767441	2
2522	45838	14110.1	1
2522	45841	14110.3	1
2522	45847	14110.52397800776	1
2522	45861	14110.883506848663	2
2522	46879	14430.1	1
2522	46883	14430.4	2
2522	46887	14430.609457044913	1
2522	46905	14430.89993005025	1
2522	47931	14750.2	2
2522	47934	14750.4	1
2522	47939	14750.709048377776	2
2522	47947	14751.026999767268	2
2522	48956	15070.2	2
2522	48960	15070.5	2
2522	48965	15070.709345838648	1
2522	48970	15070.915471411835	1
2522	49970	15390.2	2
2522	49973	15390.4	1
2522	49978	15390.707489090743	2
2522	49985	15391.027535835486	2
2522	50990	15710.1	1
2522	50993	15710.3	1
2522	50997	15710.509251536575	1
2522	51003	15710.716889505186	1
2522	52036	16030	0
2522	52040	16030.3	2
2522	52044	16030.504470961454	1
2522	52051	16030.81897815753	2
2522	53074	16350.1	1
2522	53078	16350.4	2
2522	53082	16350.608950475875	1
2522	53087	16350.918253839106	2
2522	54149	16670.1	1
2522	54152	16670.3	1
2522	54158	16670.604749057495	2
2522	54164	16670.820108789339	1
2522	55178	16990.1	1
2522	55181	16990.3	1
2522	55185	16990.50107874039	1
2522	55190	16990.713320617937	1
2522	56217	17310.2	2
2522	56221	17310.5	2
2522	56226	17310.802319735952	2
2522	56230	17311.002963352638	1
2522	57222	17630	0
2522	57225	17630.2	1
2522	57230	17630.413335813601	1
2522	57236	17630.725494616978	2
2522	58265	17950.1	1
2522	58268	17950.3	1
2522	58273	17950.602002195629	2
2522	58277	17950.811526807983	1
2522	59309	18270.2	2
2522	59313	18270.5	2
2522	59318	18270.707582075385	1
2522	59322	18270.908714780594	1
2522	60369	18590.2	2
2522	60373	18590.5	2
2522	60379	18590.813509311743	2
2522	60383	18591.016494904932	1
2522	61429	18910.1	1
2522	61433	18910.4	2
2522	61437	18910.605925858539	1
2522	61453	18910.960345896905	2
2522	62431	19230.2	2
2522	62434	19230.4	1
2522	62438	19230.609631570032	1
2522	62442	19230.812569534593	1
2522	63454	19550.1	1
2522	63457	19550.3	1
2522	63461	19550.505482225543	1
2522	63466	19550.713413717435	1
2522	64486	19870.1	1
2522	64489	19870.3	1
2522	64494	19870.603246651175	2
2522	64499	19870.810900629846	1
2522	65507	20190.2	2
2522	65510	20190.4	1
2522	65514	20190.605727960872	1
2522	65519	20190.820881578521	1
2523	31	30.1	0.875
2523	40	30.336925336809	0.875
2523	48	30.578069628278	0.875
2523	53	30.78693112965	0.875
2523	1107	350.2	0.75
2523	1110	350.4	0.875
2523	1115	350.708599531215	0.75
2523	1120	350.925563182825	0.875
2523	2136	670.1	0.875
2523	2139	670.3	0.875
2523	2143	670.500952025393	0.875
2523	2149	670.714565200208	0.875
2523	3207	990.1	0.875
2523	3211	990.30223943575	0.875
2523	3217	990.603994185197	0.75
2523	3223	990.807922560656	0.875
2523	4269	1310	1
2523	4273	1310.204894691121	0.875
2523	4280	1310.428849056512	0.875
2523	4287	1310.732351725139	0.75
2523	5327	1630.1	0.875
2523	5330	1630.3	0.875
2523	5335	1630.601443266524	0.75
2523	5343	1630.814905995164	0.875
2523	6335	1950.1	0.875
2523	6338	1950.3	0.875
2523	6343	1950.602410053121	0.75
2523	6347	1950.809626525471	0.875
2523	7407	2270.1	0.875
2523	7410	2270.3	0.875
2523	7419	2270.616069372186	0.75
2523	7426	2270.832637083997	0.875
2523	8431	2590	1
2523	8434	2590.2	0.875
2523	8438	2590.407457285285	0.875
2523	8442	2590.612821893132	0.875
2523	9457	2910	1
2523	9462	2910.4	0.625
2523	9467	2910.709897748101	0.75
2523	9472	2910.920611320232	0.875
2523	10470	3230.2	0.75
2523	10474	3230.408065569312	0.875
2523	10478	3230.614372457996	0.875
2523	10487	3230.845731650722	0.875
2523	11503	3550.2	0.75
2523	11507	3550.5	0.75
2523	11515	3550.814093759882	0.75
2523	11525	3551.055431038354	0.875
2523	12549	3870.2	0.75
2523	12553	3870.5	0.75
2523	12559	3870.713275224056	0.875
2523	12563	3870.91583244604	0.875
2523	13569	4190.2	0.75
2523	13576	4190.608257121035	0.625
2523	13581	4190.913287507513	0.75
2523	13591	4191.147692872453	0.875
2523	14598	4510.1	0.875
2523	14604	4510.411717036163	0.75
2523	14610	4510.721250530563	0.75
2523	14615	4510.928779775889	0.875
2523	15628	4830.1	0.875
2523	15631	4830.3	0.875
2523	15635	4830.50617395706	0.875
2523	15639	4830.714241761923	0.875
2523	16658	5150.1	0.875
2523	16661	5150.3	0.875
2523	16666	5150.50744246419	0.875
2523	16671	5150.716284011151	0.875
2523	17676	5470.1	0.875
2523	17680	5470.4	0.75
2523	17684	5470.603674465273	0.875
2523	17693	5470.832367923794	0.875
2523	18743	5790.2	0.75
2523	18747	5790.400621216718	0.875
2523	18752	5790.705735634436	0.75
2523	18760	5790.924770471881	0.875
2523	19757	6110.2	0.75
2523	19761	6110.5	0.75
2523	19766	6110.803553788913	0.75
2523	19774	6111.01175339872	0.875
2523	20823	6430.1	0.875
2523	20827	6430.4	0.75
2523	20832	6430.608960264492	0.875
2523	20836	6430.815411346903	0.875
2523	21870	6750.1	0.875
2523	21873	6750.3	0.875
2523	21878	6750.511132642637	0.875
2523	21882	6750.718169362441	0.875
2523	22891	7070.1	0.875
2523	22895	7070.4	0.75
2523	22900	7070.609419091012	0.875
2523	22904	7070.81199028753	0.875
2523	23967	7390.2	0.75
2523	23970	7390.4	0.875
2523	23975	7390.611266143442	0.875
2523	23983	7390.930782529875	0.75
2523	25002	7710.2	0.75
2523	25007	7710.50001200752	0.75
2523	25011	7710.700855138962	0.875
2523	25015	7710.902754909069	0.875
2523	26035	8030.1	0.875
2523	26038	8030.3	0.875
2523	26042	8030.509525638832	0.875
2523	26046	8030.717240235038	0.875
2523	27074	8350.1	0.875
2523	27079	8350.400723131669	0.75
2523	27083	8350.603350289654	0.875
2523	27087	8350.811310527423	0.875
2523	28123	8670.2	0.75
2523	28128	8670.40748024535	0.875
2523	28135	8670.723975540836	0.75
2523	28140	8671.026525104587	0.75
2523	29174	8990.1	0.875
2523	29179	8990.401377794055	0.75
2523	29186	8990.708675829547	0.75
2523	29192	8991.017823497722	0.75
2523	30190	9310.1	0.875
2523	30194	9310.4	0.75
2523	30199	9310.604834658396	0.875
2523	30204	9310.807122230964	0.875
2523	31201	9630.2	0.75
2523	31204	9630.4	0.875
2523	31210	9630.613084149103	0.875
2523	31216	9630.922728066281	0.75
2523	32201	9950	1
2523	32206	9950.300509339661	0.75
2523	32213	9950.524177569269	0.875
2523	32223	9950.844584255431	0.75
2523	33224	10270.1	0.875
2523	33228	10270.4	0.75
2523	33237	10270.715752484032	0.75
2523	33244	10270.944016560249	0.875
2523	34267	10590.1	0.875
2523	34270	10590.3	0.875
2523	34274	10590.509193604462	0.875
2523	34280	10590.824795357032	0.75
2523	35309	10910.1	0.875
2523	35313	10910.4	0.75
2523	35324	10910.745750529761	0.75
2523	35330	10910.958191275348	0.875
2523	36380	11230.1	0.875
2523	36383	11230.3	0.875
2523	36387	11230.500972968479	0.875
2523	36391	11230.704201317158	0.875
2523	37427	11550.1	0.875
2523	37431	11550.300266812196	0.875
2523	37435	11550.504577282514	0.875
2523	37439	11550.712896572186	0.875
2523	38476	11870.1	0.875
2523	38479	11870.3	0.875
2523	38483	11870.501906665074	0.875
2523	38487	11870.706614141177	0.875
2523	39532	12190.1	0.875
2523	39537	12190.400809299482	0.75
2523	39543	12190.614976830487	0.875
2523	39550	12190.836871493894	0.875
2523	40583	12510.1	0.875
2523	40587	12510.4	0.75
2523	40593	12510.709795491529	0.75
2523	40600	12510.936456007313	0.875
2523	41646	12830.1	0.875
2523	41649	12830.3	0.875
2523	41653	12830.503815357494	0.875
2523	41657	12830.70639427836	0.875
2523	42648	13150.2	0.75
2523	42651	13150.4	0.875
2523	42657	13150.617149466317	0.875
2523	42661	13150.817467812247	0.875
2523	43695	13470.2	0.75
2523	43699	13470.5	0.75
2523	43704	13470.805586655263	0.75
2523	43711	13471.023889960064	0.875
2523	44773	13790.2	0.75
2523	44777	13790.409140188151	0.875
2523	44783	13790.719737143262	0.75
2523	44788	13791.02518767441	0.75
2523	45838	14110.1	0.875
2523	45841	14110.3	0.875
2523	45847	14110.52397800776	0.875
2523	45861	14110.883506848663	0.75
2523	46879	14430.1	0.875
2523	46883	14430.4	0.75
2523	46887	14430.609457044913	0.875
2523	46905	14430.89993005025	0.875
2523	47931	14750.2	0.75
2523	47934	14750.4	0.875
2523	47939	14750.709048377776	0.75
2523	47947	14751.026999767268	0.75
2523	48956	15070.2	0.75
2523	48960	15070.5	0.75
2523	48965	15070.709345838648	0.875
2523	48970	15070.915471411835	0.875
2523	49970	15390.2	0.75
2523	49973	15390.4	0.875
2523	49978	15390.707489090743	0.75
2523	49985	15391.027535835486	0.75
2523	50990	15710.1	0.875
2523	50993	15710.3	0.875
2523	50997	15710.509251536575	0.875
2523	51003	15710.716889505186	0.875
2523	52036	16030	1
2523	52040	16030.3	0.75
2523	52044	16030.504470961454	0.875
2523	52051	16030.81897815753	0.75
2523	53074	16350.1	0.875
2523	53078	16350.4	0.75
2523	53082	16350.608950475875	0.875
2523	53087	16350.918253839106	0.75
2523	54149	16670.1	0.875
2523	54152	16670.3	0.875
2523	54158	16670.604749057495	0.75
2523	54164	16670.820108789339	0.875
2523	55178	16990.1	0.875
2523	55181	16990.3	0.875
2523	55185	16990.50107874039	0.875
2523	55190	16990.713320617937	0.875
2523	56217	17310.2	0.75
2523	56221	17310.5	0.75
2523	56226	17310.802319735952	0.75
2523	56230	17311.002963352638	0.875
2523	57222	17630	1
2523	57225	17630.2	0.875
2523	57230	17630.413335813601	0.875
2523	57236	17630.725494616978	0.75
2523	58265	17950.1	0.875
2523	58268	17950.3	0.875
2523	58273	17950.602002195629	0.75
2523	58277	17950.811526807983	0.875
2523	59309	18270.2	0.75
2523	59313	18270.5	0.75
2523	59318	18270.707582075385	0.875
2523	59322	18270.908714780594	0.875
2523	60369	18590.2	0.75
2523	60373	18590.5	0.75
2523	60379	18590.813509311743	0.75
2523	60383	18591.016494904932	0.875
2523	61429	18910.1	0.875
2523	61433	18910.4	0.75
2523	61437	18910.605925858539	0.875
2523	61453	18910.960345896905	0.75
2523	62431	19230.2	0.75
2523	62434	19230.4	0.875
2523	62438	19230.609631570032	0.875
2523	62442	19230.812569534593	0.875
2523	63454	19550.1	0.875
2523	63457	19550.3	0.875
2523	63461	19550.505482225543	0.875
2523	63466	19550.713413717435	0.875
2523	64486	19870.1	0.875
2523	64489	19870.3	0.875
2523	64494	19870.603246651175	0.75
2523	64499	19870.810900629846	0.875
2523	65507	20190.2	0.75
2523	65510	20190.4	0.875
2523	65514	20190.605727960872	0.875
2523	65519	20190.820881578521	0.875
2524	31	30.1	0.1
2524	40	30.336925336809	0.2
2524	48	30.578069628278	0.2
2524	53	30.78693112965	0.2
2524	1107	350.2	0.2
2524	1110	350.4	0.2
2524	1115	350.708599531215	0.3
2524	1120	350.925563182825	0.2
2524	2136	670.1	0.1
2524	2139	670.3	0.2
2524	2143	670.500952025393	0.2
2524	2149	670.714565200208	0.2
2524	3207	990.1	0.1
2524	3211	990.30223943575	0.2
2524	3217	990.603994185197	0.3
2524	3223	990.807922560656	0.2
2524	4269	1310	0
2524	4273	1310.204894691121	0.2
2524	4280	1310.428849056512	0.2
2524	4287	1310.732351725139	0.3
2524	5327	1630.1	0.1
2524	5330	1630.3	0.2
2524	5335	1630.601443266524	0.3
2524	5343	1630.814905995164	0.2
2524	6335	1950.1	0.1
2524	6338	1950.3	0.2
2524	6343	1950.602410053121	0.3
2524	6347	1950.809626525471	0.2
2524	7407	2270.1	0.1
2524	7410	2270.3	0.2
2524	7419	2270.616069372186	0.3
2524	7426	2270.832637083997	0.2
2524	8431	2590	0
2524	8434	2590.2	0.2
2524	8438	2590.407457285285	0.2
2524	8442	2590.612821893132	0.2
2524	9457	2910	0
2524	9462	2910.4	0.4
2524	9467	2910.709897748101	0.3
2524	9472	2910.920611320232	0.2
2524	10470	3230.2	0.2
2524	10474	3230.408065569312	0.2
2524	10478	3230.614372457996	0.2
2524	10487	3230.845731650722	0.2
2524	11503	3550.2	0.2
2524	11507	3550.5	0.3
2524	11515	3550.814093759882	0.3
2524	11525	3551.055431038354	0.2
2524	12549	3870.2	0.2
2524	12553	3870.5	0.3
2524	12559	3870.713275224056	0.2
2524	12563	3870.91583244604	0.2
2524	13569	4190.2	0.2
2524	13576	4190.608257121035	0.4
2524	13581	4190.913287507513	0.3
2524	13591	4191.147692872453	0.2
2524	14598	4510.1	0.1
2524	14604	4510.411717036163	0.3
2524	14610	4510.721250530563	0.3
2524	14615	4510.928779775889	0.2
2524	15628	4830.1	0.1
2524	15631	4830.3	0.2
2524	15635	4830.50617395706	0.2
2524	15639	4830.714241761923	0.2
2524	16658	5150.1	0.1
2524	16661	5150.3	0.2
2524	16666	5150.50744246419	0.2
2524	16671	5150.716284011151	0.2
2524	17676	5470.1	0.1
2524	17680	5470.4	0.3
2524	17684	5470.603674465273	0.2
2524	17693	5470.832367923794	0.2
2524	18743	5790.2	0.2
2524	18747	5790.400621216718	0.2
2524	18752	5790.705735634436	0.3
2524	18760	5790.924770471881	0.2
2524	19757	6110.2	0.2
2524	19761	6110.5	0.3
2524	19766	6110.803553788913	0.3
2524	19774	6111.01175339872	0.2
2524	20823	6430.1	0.1
2524	20827	6430.4	0.3
2524	20832	6430.608960264492	0.2
2524	20836	6430.815411346903	0.2
2524	21870	6750.1	0.1
2524	21873	6750.3	0.2
2524	21878	6750.511132642637	0.2
2524	21882	6750.718169362441	0.2
2524	22891	7070.1	0.1
2524	22895	7070.4	0.3
2524	22900	7070.609419091012	0.2
2524	22904	7070.81199028753	0.2
2524	23967	7390.2	0.2
2524	23970	7390.4	0.2
2524	23975	7390.611266143442	0.2
2524	23983	7390.930782529875	0.3
2524	25002	7710.2	0.2
2524	25007	7710.50001200752	0.3
2524	25011	7710.700855138962	0.2
2524	25015	7710.902754909069	0.2
2524	26035	8030.1	0.1
2524	26038	8030.3	0.2
2524	26042	8030.509525638832	0.2
2524	26046	8030.717240235038	0.2
2524	27074	8350.1	0.1
2524	27079	8350.400723131669	0.3
2524	27083	8350.603350289654	0.2
2524	27087	8350.811310527423	0.2
2524	28123	8670.2	0.2
2524	28128	8670.40748024535	0.2
2524	28135	8670.723975540836	0.3
2524	28140	8671.026525104587	0.3
2524	29174	8990.1	0.1
2524	29179	8990.401377794055	0.3
2524	29186	8990.708675829547	0.3
2524	29192	8991.017823497722	0.3
2524	30190	9310.1	0.1
2524	30194	9310.4	0.3
2524	30199	9310.604834658396	0.2
2524	30204	9310.807122230964	0.2
2524	31201	9630.2	0.2
2524	31204	9630.4	0.2
2524	31210	9630.613084149103	0.2
2524	31216	9630.922728066281	0.3
2524	32201	9950	0
2524	32206	9950.300509339661	0.3
2524	32213	9950.524177569269	0.2
2524	32223	9950.844584255431	0.3
2524	33224	10270.1	0.1
2524	33228	10270.4	0.3
2524	33237	10270.715752484032	0.3
2524	33244	10270.944016560249	0.2
2524	34267	10590.1	0.1
2524	34270	10590.3	0.2
2524	34274	10590.509193604462	0.2
2524	34280	10590.824795357032	0.3
2524	35309	10910.1	0.1
2524	35313	10910.4	0.3
2524	35324	10910.745750529761	0.3
2524	35330	10910.958191275348	0.2
2524	36380	11230.1	0.1
2524	36383	11230.3	0.2
2524	36387	11230.500972968479	0.2
2524	36391	11230.704201317158	0.2
2524	37427	11550.1	0.1
2524	37431	11550.300266812196	0.2
2524	37435	11550.504577282514	0.2
2524	37439	11550.712896572186	0.2
2524	38476	11870.1	0.1
2524	38479	11870.3	0.2
2524	38483	11870.501906665074	0.2
2524	38487	11870.706614141177	0.2
2524	39532	12190.1	0.1
2524	39537	12190.400809299482	0.3
2524	39543	12190.614976830487	0.2
2524	39550	12190.836871493894	0.2
2524	40583	12510.1	0.1
2524	40587	12510.4	0.3
2524	40593	12510.709795491529	0.3
2524	40600	12510.936456007313	0.2
2524	41646	12830.1	0.1
2524	41649	12830.3	0.2
2524	41653	12830.503815357494	0.2
2524	41657	12830.70639427836	0.2
2524	42648	13150.2	0.2
2524	42651	13150.4	0.2
2524	42657	13150.617149466317	0.2
2524	42661	13150.817467812247	0.2
2524	43695	13470.2	0.2
2524	43699	13470.5	0.3
2524	43704	13470.805586655263	0.3
2524	43711	13471.023889960064	0.2
2524	44773	13790.2	0.2
2524	44777	13790.409140188151	0.2
2524	44783	13790.719737143262	0.3
2524	44788	13791.02518767441	0.3
2524	45838	14110.1	0.1
2524	45841	14110.3	0.2
2524	45847	14110.52397800776	0.2
2524	45861	14110.883506848663	0.3
2524	46879	14430.1	0.1
2524	46883	14430.4	0.3
2524	46887	14430.609457044913	0.2
2524	46905	14430.89993005025	0.2
2524	47931	14750.2	0.2
2524	47934	14750.4	0.2
2524	47939	14750.709048377776	0.3
2524	47947	14751.026999767268	0.3
2524	48956	15070.2	0.2
2524	48960	15070.5	0.3
2524	48965	15070.709345838648	0.2
2524	48970	15070.915471411835	0.2
2524	49970	15390.2	0.2
2524	49973	15390.4	0.2
2524	49978	15390.707489090743	0.3
2524	49985	15391.027535835486	0.3
2524	50990	15710.1	0.1
2524	50993	15710.3	0.2
2524	50997	15710.509251536575	0.2
2524	51003	15710.716889505186	0.2
2524	52036	16030	0
2524	52040	16030.3	0.3
2524	52044	16030.504470961454	0.2
2524	52051	16030.81897815753	0.3
2524	53074	16350.1	0.1
2524	53078	16350.4	0.3
2524	53082	16350.608950475875	0.2
2524	53087	16350.918253839106	0.3
2524	54149	16670.1	0.1
2524	54152	16670.3	0.2
2524	54158	16670.604749057495	0.3
2524	54164	16670.820108789339	0.2
2524	55178	16990.1	0.1
2524	55181	16990.3	0.2
2524	55185	16990.50107874039	0.2
2524	55190	16990.713320617937	0.2
2524	56217	17310.2	0.2
2524	56221	17310.5	0.3
2524	56226	17310.802319735952	0.3
2524	56230	17311.002963352638	0.2
2524	57222	17630	0
2524	57225	17630.2	0.2
2524	57230	17630.413335813601	0.2
2524	57236	17630.725494616978	0.3
2524	58265	17950.1	0.1
2524	58268	17950.3	0.2
2524	58273	17950.602002195629	0.3
2524	58277	17950.811526807983	0.2
2524	59309	18270.2	0.2
2524	59313	18270.5	0.3
2524	59318	18270.707582075385	0.2
2524	59322	18270.908714780594	0.2
2524	60369	18590.2	0.2
2524	60373	18590.5	0.3
2524	60379	18590.813509311743	0.3
2524	60383	18591.016494904932	0.2
2524	61429	18910.1	0.1
2524	61433	18910.4	0.3
2524	61437	18910.605925858539	0.2
2524	61453	18910.960345896905	0.3
2524	62431	19230.2	0.2
2524	62434	19230.4	0.2
2524	62438	19230.609631570032	0.2
2524	62442	19230.812569534593	0.2
2524	63454	19550.1	0.1
2524	63457	19550.3	0.2
2524	63461	19550.505482225543	0.2
2524	63466	19550.713413717435	0.2
2524	64486	19870.1	0.1
2524	64489	19870.3	0.2
2524	64494	19870.603246651175	0.3
2524	64499	19870.810900629846	0.2
2524	65507	20190.2	0.2
2524	65510	20190.4	0.2
2524	65514	20190.605727960872	0.2
2524	65519	20190.820881578521	0.2
2525	70	40.1	1
2525	74	40.4	2
2525	78	40.606825937139	1
2525	84	40.912430114898	2
2525	1136	360	0
2525	1139	360.2	1
2525	1144	360.508153128696	2
2525	1150	360.819520917636	2
2525	2167	680.2	2
2525	2170	680.4	1
2525	2175	680.700266409316	2
2525	2179	680.900984663206	1
2525	3239	1000	0
2525	3244	1000.302591083603	2
2525	3252	1000.617402543262	2
2525	3262	1000.950115772569	2
2525	4304	1320.1	1
2525	4307	1320.3	1
2525	4312	1320.512982466895	1
2525	4316	1320.717328482078	1
2525	5359	1640	0
2525	5362	1640.2	1
2525	5369	1640.51139207837	2
2525	5378	1640.83537183297	2
2525	6365	1960.2	2
2525	6369	1960.5	2
2525	6373	1960.700717994493	1
2525	6378	1960.905839509244	1
2525	7443	2280.1	1
2525	7446	2280.3	1
2525	7451	2280.512983792223	1
2525	7463	2280.763024185623	1
2525	8459	2600.1	1
2525	8463	2600.307184513367	1
2525	8468	2600.515956132122	1
2525	8475	2600.741415671784	1
2525	9489	2920.1	1
2525	9492	2920.3	1
2525	9500	2920.51914926278	1
2525	9505	2920.726590109972	1
2525	10505	3240.2	2
2525	10508	3240.4	1
2525	10512	3240.603899076012	1
2525	10516	3240.804814260852	1
2525	11542	3560.1	1
2525	11546	3560.4	2
2525	11550	3560.604067479462	1
2525	11557	3560.83180273431	1
2525	12581	3880.2	2
2525	12584	3880.4	1
2525	12589	3880.709283010177	2
2525	12595	3881.015634296908	2
2525	13609	4200.2	2
2525	13612	4200.4	1
2525	13616	4200.608311480793	1
2525	13624	4200.834012925644	1
2525	14633	4520.2	2
2525	14637	4520.5	2
2525	14645	4520.811544025294	2
2525	14650	4521.021283553438	1
2525	15657	4840.2	2
2525	15661	4840.5	2
2525	15665	4840.701722497155	1
2525	15672	4841.01412826745	2
2525	16689	5160.2	2
2525	16693	5160.5	2
2525	16697	5160.701173354783	1
2525	16701	5160.907040559062	1
2525	17710	5480.1	1
2525	17714	5480.4	2
2525	17719	5480.609902402918	1
2525	17726	5480.933239998522	2
2525	18777	5800.1	1
2525	18780	5800.3	1
2525	18787	5800.612809832768	2
2525	18793	5800.914942904863	2
2525	19791	6120.1	1
2525	19794	6120.3	1
2525	19798	6120.506022658459	1