version 2
run Stability-66-20130528-00:54:27-21385
attr configname Stability
attr datetime 20130528-00:54:27
attr experiment Stability
attr inifile omnetpp.ini
attr iterationvars $0=1e0
attr iterationvars2 "$0=1e0, $repetition=6"
attr measurement $0=1e0
attr network Network
attr processid 21385
attr repetition 6
attr replication #6
attr resultdir results
attr runnumber 66
attr seedset 66

vector 6498  Network.churner  inGoingSizeSig:vector  ETV
vector 6411  Network.dyn_peer[3]  lookupHopsSig:vector  ETV
vector 6412  Network.dyn_peer[3]  lookupStabilitySig:vector  ETV
vector 6413  Network.dyn_peer[3]  lookupTimeSig:vector  ETV
vector 6429  Network.dyn_peer[9]  lookupHopsSig:vector  ETV
vector 6430  Network.dyn_peer[9]  lookupStabilitySig:vector  ETV
vector 6431  Network.dyn_peer[9]  lookupTimeSig:vector  ETV
vector 6486  Network.dyn_peer[28]  lookupHopsSig:vector  ETV
vector 6487  Network.dyn_peer[28]  lookupStabilitySig:vector  ETV
vector 6488  Network.dyn_peer[28]  lookupTimeSig:vector  ETV
vector 6495  Network.dyn_peer[31]  lookupHopsSig:vector  ETV
vector 6496  Network.dyn_peer[31]  lookupStabilitySig:vector  ETV
vector 6497  Network.dyn_peer[31]  lookupTimeSig:vector  ETV
vector 6405  Network.dyn_peer[1]  lookupHopsSig:vector  ETV
vector 6406  Network.dyn_peer[1]  lookupStabilitySig:vector  ETV
vector 6407  Network.dyn_peer[1]  lookupTimeSig:vector  ETV
vector 6408  Network.dyn_peer[2]  lookupHopsSig:vector  ETV
vector 6409  Network.dyn_peer[2]  lookupStabilitySig:vector  ETV
vector 6410  Network.dyn_peer[2]  lookupTimeSig:vector  ETV
vector 6414  Network.dyn_peer[4]  lookupHopsSig:vector  ETV
vector 6415  Network.dyn_peer[4]  lookupStabilitySig:vector  ETV
vector 6416  Network.dyn_peer[4]  lookupTimeSig:vector  ETV
vector 6417  Network.dyn_peer[5]  lookupHopsSig:vector  ETV
vector 6418  Network.dyn_peer[5]  lookupStabilitySig:vector  ETV
vector 6419  Network.dyn_peer[5]  lookupTimeSig:vector  ETV
vector 6435  Network.dyn_peer[11]  lookupHopsSig:vector  ETV
vector 6436  Network.dyn_peer[11]  lookupStabilitySig:vector  ETV
vector 6437  Network.dyn_peer[11]  lookupTimeSig:vector  ETV
vector 6447  Network.dyn_peer[15]  lookupHopsSig:vector  ETV
vector 6448  Network.dyn_peer[15]  lookupStabilitySig:vector  ETV
vector 6449  Network.dyn_peer[15]  lookupTimeSig:vector  ETV
vector 6450  Network.dyn_peer[16]  lookupHopsSig:vector  ETV
vector 6451  Network.dyn_peer[16]  lookupStabilitySig:vector  ETV
vector 6452  Network.dyn_peer[16]  lookupTimeSig:vector  ETV
vector 6468  Network.dyn_peer[22]  lookupHopsSig:vector  ETV
vector 6469  Network.dyn_peer[22]  lookupStabilitySig:vector  ETV
vector 6470  Network.dyn_peer[22]  lookupTimeSig:vector  ETV
vector 6471  Network.dyn_peer[23]  lookupHopsSig:vector  ETV
vector 6472  Network.dyn_peer[23]  lookupStabilitySig:vector  ETV
vector 6473  Network.dyn_peer[23]  lookupTimeSig:vector  ETV
vector 6477  Network.dyn_peer[25]  lookupHopsSig:vector  ETV
vector 6478  Network.dyn_peer[25]  lookupStabilitySig:vector  ETV
vector 6479  Network.dyn_peer[25]  lookupTimeSig:vector  ETV
vector 6483  Network.dyn_peer[27]  lookupHopsSig:vector  ETV
vector 6484  Network.dyn_peer[27]  lookupStabilitySig:vector  ETV
vector 6485  Network.dyn_peer[27]  lookupTimeSig:vector  ETV
vector 6402  Network.dyn_peer[0]  lookupHopsSig:vector  ETV
vector 6403  Network.dyn_peer[0]  lookupStabilitySig:vector  ETV
vector 6404  Network.dyn_peer[0]  lookupTimeSig:vector  ETV
vector 6420  Network.dyn_peer[6]  lookupHopsSig:vector  ETV
vector 6421  Network.dyn_peer[6]  lookupStabilitySig:vector  ETV
vector 6422  Network.dyn_peer[6]  lookupTimeSig:vector  ETV
vector 6423  Network.dyn_peer[7]  lookupHopsSig:vector  ETV
vector 6424  Network.dyn_peer[7]  lookupStabilitySig:vector  ETV
vector 6425  Network.dyn_peer[7]  lookupTimeSig:vector  ETV
vector 6426  Network.dyn_peer[8]  lookupHopsSig:vector  ETV
vector 6427  Network.dyn_peer[8]  lookupStabilitySig:vector  ETV
vector 6428  Network.dyn_peer[8]  lookupTimeSig:vector  ETV
vector 6444  Network.dyn_peer[14]  lookupHopsSig:vector  ETV
vector 6445  Network.dyn_peer[14]  lookupStabilitySig:vector  ETV
vector 6446  Network.dyn_peer[14]  lookupTimeSig:vector  ETV
vector 6456  Network.dyn_peer[18]  lookupHopsSig:vector  ETV
vector 6457  Network.dyn_peer[18]  lookupStabilitySig:vector  ETV
vector 6458  Network.dyn_peer[18]  lookupTimeSig:vector  ETV
vector 6459  Network.dyn_peer[19]  lookupHopsSig:vector  ETV
vector 6460  Network.dyn_peer[19]  lookupStabilitySig:vector  ETV
vector 6461  Network.dyn_peer[19]  lookupTimeSig:vector  ETV
vector 6465  Network.dyn_peer[21]  lookupHopsSig:vector  ETV
vector 6466  Network.dyn_peer[21]  lookupStabilitySig:vector  ETV
vector 6467  Network.dyn_peer[21]  lookupTimeSig:vector  ETV
vector 6474  Network.dyn_peer[24]  lookupHopsSig:vector  ETV
vector 6475  Network.dyn_peer[24]  lookupStabilitySig:vector  ETV
vector 6476  Network.dyn_peer[24]  lookupTimeSig:vector  ETV
vector 6492  Network.dyn_peer[30]  lookupHopsSig:vector  ETV
vector 6493  Network.dyn_peer[30]  lookupStabilitySig:vector  ETV
vector 6494  Network.dyn_peer[30]  lookupTimeSig:vector  ETV
vector 6453  Network.dyn_peer[17]  lookupHopsSig:vector  ETV
vector 6454  Network.dyn_peer[17]  lookupStabilitySig:vector  ETV
vector 6455  Network.dyn_peer[17]  lookupTimeSig:vector  ETV
vector 6480  Network.dyn_peer[26]  lookupHopsSig:vector  ETV
vector 6481  Network.dyn_peer[26]  lookupStabilitySig:vector  ETV
vector 6482  Network.dyn_peer[26]  lookupTimeSig:vector  ETV
vector 6489  Network.dyn_peer[29]  lookupHopsSig:vector  ETV
vector 6490  Network.dyn_peer[29]  lookupStabilitySig:vector  ETV
vector 6491  Network.dyn_peer[29]  lookupTimeSig:vector  ETV
vector 6432  Network.dyn_peer[10]  lookupHopsSig:vector  ETV
vector 6433  Network.dyn_peer[10]  lookupStabilitySig:vector  ETV
vector 6434  Network.dyn_peer[10]  lookupTimeSig:vector  ETV
vector 6438  Network.dyn_peer[12]  lookupHopsSig:vector  ETV
vector 6439  Network.dyn_peer[12]  lookupStabilitySig:vector  ETV
vector 6440  Network.dyn_peer[12]  lookupTimeSig:vector  ETV
vector 6441  Network.dyn_peer[13]  lookupHopsSig:vector  ETV
vector 6442  Network.dyn_peer[13]  lookupStabilitySig:vector  ETV
vector 6443  Network.dyn_peer[13]  lookupTimeSig:vector  ETV
vector 6462  Network.dyn_peer[20]  lookupHopsSig:vector  ETV
vector 6463  Network.dyn_peer[20]  lookupStabilitySig:vector  ETV
vector 6464  Network.dyn_peer[20]  lookupTimeSig:vector  ETV
6402	221	20.201	2
6402	400	20.501	2
6402	782	21.107293062712	7
6402	1079	21.410226579997	3
6402	1383	21.710226579997	2
6402	1633	21.919306168554	2
6402	2413	22.619306168554	7
6402	4334	24.122031433796	15
6402	4624	24.33421313966	1
6402	4907	24.544703872392	2
6402	5767	25.244703872392	6
6402	6205	25.646972418336	3
6402	6309	25.744072030167	2
6402	6558	25.9515318534	2
6402	6741	26.144686902131	3
6402	7084	26.457627729406	4
6402	7168	26.547593202291	3
6402	7392	26.751208845089	2
6402	8026	27.351208845089	5
6402	8234	27.561032531751	1
6402	8971	28.168502080911	6
6402	9182	28.308443937832	7
6402	9689	28.619435477669	3
6402	10250	29.019435477669	3
6402	10466	29.229388000235	1
6402	11005	29.630488000235	4
6402	11482	30.030488000235	3
6402	11805	30.334715610984	2
6402	12412	30.83641496518	4
6402	13269	31.53751496518	7
6402	13421	31.63751496518	0
6402	14235	32.245911879427	5
6402	14312	32.305686853399	5
6402	14460	32.446131157026	1
6402	14705	32.647231157026	2
6402	15076	32.950783277831	3
6402	16449	34.153066902963	11
6402	16677	34.362106635327	1
6402	17026	34.669081211286	2
6402	17183	34.771701641391	1
6402	18423	35.871701641391	11
6402	18730	36.172801641391	3
6402	19377	36.772801641391	5
6402	19823	37.182009749451	3
6402	20320	37.663801430291	4
6402	20362	37.688678816008	4
6402	20424	37.761478946178	1
6402	20798	38.065170841614	3
6402	20827	38.075705637008	2
6402	21205	38.37086303138	3
6402	21233	38.381538776364	2
6402	21254	38.392106768559	6
6402	21466	38.513176306616	2
6402	21528	38.567799932152	4
6402	21573	38.600343819498	2
6402	22309	39.20787578211	7
6402	22722	39.50787578211	2
6402	22946	39.715993696321	1
6402	23468	40.121761835982	4
6402	24437	40.921761835982	7
6402	24710	41.131011756147	1
6402	24869	41.28032361359	1
6402	25268	41.689004000207	3
6402	25319	41.741245388521	5
6402	25458	41.84191666684	0
6402	25522	41.892366063301	1
6402	26235	42.398875395006	6
6402	27049	43.098875395006	6
6402	27563	43.608098730933	4
6402	27842	43.827415649745	1
6402	27869	43.8542636682	1
6402	28709	44.562645487216	7
6402	29676	45.462645487216	8
6402	30240	45.965109536253	4
6402	30591	46.305831942894	5
6402	31295	46.906871467184	1
6402	31506	47.072200665365	10
6402	31524	47.108305226751	9
6402	31527	47.111293906886	1
6402	31859	47.412033936982	2
6402	31865	47.417037413208	2
6402	31951	47.478887690878	3
6402	33432	48.78415007616	15
6402	34194	49.28415007616	4
6402	34782	49.808973582179	4
6402	35053	50.112764664817	2
6402	35725	50.718651607068	6
6402	36630	51.518651607068	8
6402	36638	51.526672975307	5
6402	37026	51.826215265641	3
6402	37518	52.227772975307	7
6402	37525	52.23164673111	3
6402	38256	52.83274673111	7
6402	38493	53.03274673111	2
6402	39085	53.551288246864	5
6402	39316	53.703713551766	5
6402	39336	53.705389636033	0
6402	39567	53.905389636033	1
6402	40089	54.314393828145	3
6402	40181	54.392174652681	1
6402	40933	54.998995558724	6
6402	41411	55.398995558724	4
6402	42672	56.408264829492	9
6402	43334	56.91658327085	1
6402	43541	57.12455056229	2
6402	44768	58.22455056229	10
6402	45413	58.83021509069	5
6402	45416	58.831170524988	5
6402	45774	59.134829395502	2
6402	45779	59.136919010053	2
6402	46090	59.357584195021	3
6402	46413	59.637706914848	4
6402	46419	59.642327423775	4
6402	46585	59.798488037743	1
6402	46631	59.858739806611	4
6402	46847	60.026350325705	6
6402	47341	60.43381252994	4
6402	48459	61.33381252994	9
6402	49478	62.140849126637	7
6402	49492	62.1540898893	5
6402	50221	62.764121206745	6
6402	50852	63.264121206745	4
6402	51377	63.666607465896	2
6402	51650	63.869405596186	5
6402	51785	63.968556118196	3
6402	52937	64.770304322924	9
6402	54226	65.820313547599	1
6402	54734	66.320313547599	4
6402	55032	66.62230311428	2
6402	55578	67.029223912063	4
6402	56055	67.429223912063	3
6402	56545	67.931682817363	5
6402	56829	68.148617856882	3
6402	57053	68.35709534574	1
6402	57565	68.75819534574	4
6402	58279	69.25819534574	4
6402	58517	69.402921019865	4
6402	58600	69.458370487206	2
6402	58921	69.671764814025	2
6402	59057	69.772763210518	4
6402	59331	69.974665791534	2
6402	59687	70.282139924649	2
6402	59759	70.368195399864	1
6402	60779	71.110756781199	8
6402	61762	71.920270764633	8
6402	61983	72.120270764633	1
6402	63185	73.124714519983	9
6402	64040	73.920466462729	7
6402	64383	74.227608514625	2
6402	64386	74.227997165527	10
6402	64800	74.529097165527	3
6402	65029	74.729097165527	1
6402	65558	75.136098473187	3
6402	66227	75.628197165527	6
6402	66672	75.933734080589	3
6402	67564	76.733734080589	7
6402	67766	76.941612356226	1
6402	68197	77.343338463665	3
6402	68516	77.559951931125	4
6402	68523	77.565950922808	1
6402	68886	77.868786162888	2
6402	68890	77.873830200892	2
6402	68913	77.874930200892	0
6402	69308	78.174930200892	2
6402	69690	78.477078016132	2
6402	70639	79.282224869883	7
6402	70761	79.389431740057	1
6402	71353	79.793926422874	3
6402	71472	79.886530056056	8
6402	71997	80.288939165721	3
6402	72817	80.988939165721	6
6402	73193	81.293910797791	2
6402	73468	81.499815071083	1
6402	73583	81.604878867788	1
6402	74338	82.204878867788	5
6402	74925	82.707410990682	4
6402	76191	83.716992006653	9
6402	76641	84.105655679098	1
6402	76754	84.203059491304	1
6402	77400	84.713711904603	6
6402	77973	85.213711904603	4
6402	78442	85.619184550341	3
6402	78806	85.928710925192	3
6402	79989	86.928710925192	9
6402	80197	87.135332245814	1
6402	80895	87.674444265748	4
6402	81049	87.839195537014	8
6402	81412	88.14697700021	2
6402	81419	88.14861819794	2
6402	81617	88.278494212434	7
6402	81714	88.348376486565	2
6402	81741	88.36366067169	8
6402	81755	88.365333019475	0
6402	81973	88.565333019475	1
6402	82423	88.966907029979	3
6402	83352	89.768007029979	8
6402	84048	90.375773804615	5
6402	84458	90.685374883654	2
6402	85866	91.886474883654	15
6402	86259	92.186474883654	2
6402	86399	92.312615724274	2
6402	86629	92.517984703566	2
6402	86706	92.579412933968	2
6402	87077	92.887960961931	6
6402	87141	92.919724613897	4
6402	87222	92.98713282174	4
6402	87686	93.326580229672	3
6402	87800	93.392784660545	3
6402	87803	93.39520281754	3
6402	87813	93.400568339383	4
6402	88158	93.607417998667	2
6402	89042	94.307417998667	7
6402	89563	94.908123247354	5
6402	89674	95.007878270561	5
6402	89791	95.1156884627	1
6402	89982	95.3156884627	1
6402	90216	95.517945617926	1
6402	90409	95.725021961279	1
6402	90852	96.132100865335	5
6402	91319	96.532100865335	4
6402	91911	97.036634269344	4
6402	92351	97.33800281401	3
6402	92597	97.559037746282	1
6402	93395	98.164858573039	5
6402	93602	98.328403283035	4
6402	93933	98.571299682107	3
6402	94132	98.694423369313	3
6402	94636	99.097246325517	4
6402	95262	99.597246325517	4
6402	95925	100.206649895091	5
6402	96316	100.578981330263	7
6402	97466	101.482369056146	9
6402	98176	102.082369056146	5
6402	98827	102.609116075685	3
6402	99141	102.889431007406	7
6402	99533	103.209241596268	5
6402	100120	103.712278975231	5
6402	100407	103.912278975231	1
6402	100565	104.039954995324	1
6402	100779	104.22055724351	2
6402	100829	104.249092491863	1
6402	101041	104.428687998589	1
6402	101192	104.547021491801	5
6402	102661	105.655538189711	11
6402	103211	106.155538189711	4
6402	103617	106.52223060959	5
6402	103773	106.664543944459	4
6402	104201	107.024466582427	4
6402	104458	107.231930908751	1
6402	104540	107.263336752108	1
6402	104897	107.568181572483	8
6402	105473	108.071030858827	5
6402	105907	108.471030858827	3
6402	106352	108.876233566016	3
6402	106924	109.311893849963	3
6402	107429	109.719472920565	4
6402	107446	109.720572920565	0
6402	108172	110.320572920565	5
6402	108733	110.827116227764	4
6402	109027	111.106110793477	5
6402	109463	111.432617600829	5
6402	110386	112.234060171812	10
6402	110775	112.534060171812	2
6402	111139	112.83839000523	2
6402	111600	113.248161695004	5
6402	112557	114.04852862052	7
6402	113530	114.853522844922	8
6402	114314	115.453522844922	6
6402	114515	115.653637898829	1
6402	114826	115.956353665815	2
6402	115442	116.561255750106	5
6402	115458	116.565634089863	5
6402	115711	116.766834216655	1
6402	116433	117.368182457369	6
6402	116961	117.868182457369	4
6402	117508	118.270502881754	3
6402	117527	118.274880418684	3
6402	118161	118.680236974391	4
6402	119044	119.280236974391	6
6402	120334	120.39553557487	7
6402	120570	120.59553557487	1
6402	120800	120.797290952331	1
6402	121113	121.103024698923	2
6402	121588	121.50549643796	3
6402	121876	121.708888522807	2
6402	123444	122.981867428741	6
6402	124056	123.481867428741	4
6402	124319	123.689614420488	1
6402	125107	124.389682941168	7
6402	125219	124.511349445978	4
6402	125654	124.822736789088	3
6402	125832	124.995679566121	5
6402	126143	125.222945514674	6
6402	126158	125.226342525367	3
6402	126397	125.421790944614	4
6402	126656	125.62721859517	2
6402	127434	126.22721859517	5
6402	128181	126.83560790609	5
6402	128647	127.23670790609	4
6402	129771	128.03670790609	9
6402	130131	128.339242819797	2
6402	131296	129.340342819797	10
6402	131876	129.840342819797	5
6402	132796	130.696373209883	7
6402	133057	130.942485284182	11
6402	133356	131.198451649455	4
6402	133700	131.500319375198	6
6402	133816	131.617357365033	3
6402	133821	131.645489921968	6
6402	135008	132.65582358406	11
6402	135402	133.05582358406	4
6403	221	20.201	0.75
6403	400	20.501	0.75
6403	782	21.107293062712	0.125
6403	1079	21.410226579997	0.625
6403	1383	21.710226579997	0.75
6403	1633	21.919306168554	0.75
6403	2413	22.619306168554	0.125
6403	4334	24.122031433796	-0.875
6403	4624	24.33421313966	0.875
6403	4907	24.544703872392	0.75
6403	5767	25.244703872392	0.25
6403	6205	25.646972418336	0.625
6403	6309	25.744072030167	0.75
6403	6558	25.9515318534	0.75
6403	6741	26.144686902131	0.625
6403	7084	26.457627729406	0.5
6403	7168	26.547593202291	0.625
6403	7392	26.751208845089	0.75
6403	8026	27.351208845089	0.375
6403	8234	27.561032531751	0.875
6403	8971	28.168502080911	0.25
6403	9182	28.308443937832	0.125
6403	9689	28.619435477669	0.625
6403	10250	29.019435477669	0.625
6403	10466	29.229388000235	0.875
6403	11005	29.630488000235	0.5
6403	11482	30.030488000235	0.625
6403	11805	30.334715610984	0.75
6403	12412	30.83641496518	0.5
6403	13269	31.53751496518	0.125
6403	13421	31.63751496518	1
6403	14235	32.245911879427	0.375
6403	14312	32.305686853399	0.375
6403	14460	32.446131157026	0.875
6403	14705	32.647231157026	0.75
6403	15076	32.950783277831	0.625
6403	16449	34.153066902963	-0.375
6403	16677	34.362106635327	0.875
6403	17026	34.669081211286	0.75
6403	17183	34.771701641391	0.875
6403	18423	35.871701641391	-0.375
6403	18730	36.172801641391	0.625
6403	19377	36.772801641391	0.375
6403	19823	37.182009749451	0.625
6403	20320	37.663801430291	0.5
6403	20362	37.688678816008	0.5
6403	20424	37.761478946178	0.875
6403	20798	38.065170841614	0.625
6403	20827	38.075705637008	0.75
6403	21205	38.37086303138	0.625
6403	21233	38.381538776364	0.75
6403	21254	38.392106768559	0.25
6403	21466	38.513176306616	0.75
6403	21528	38.567799932152	0.5
6403	21573	38.600343819498	0.75
6403	22309	39.20787578211	0.125
6403	22722	39.50787578211	0.75
6403	22946	39.715993696321	0.875
6403	23468	40.121761835982	0.5
6403	24437	40.921761835982	0.125
6403	24710	41.131011756147	0.875
6403	24869	41.28032361359	0.875
6403	25268	41.689004000207	0.625
6403	25319	41.741245388521	0.375
6403	25458	41.84191666684	1
6403	25522	41.892366063301	0.875
6403	26235	42.398875395006	0.25
6403	27049	43.098875395006	0.25
6403	27563	43.608098730933	0.5
6403	27842	43.827415649745	0.875
6403	27869	43.8542636682	0.875
6403	28709	44.562645487216	0.125
6403	29676	45.462645487216	0
6403	30240	45.965109536253	0.5
6403	30591	46.305831942894	0.375
6403	31295	46.906871467184	0.875
6403	31506	47.072200665365	-0.25
6403	31524	47.108305226751	-0.125
6403	31527	47.111293906886	0.875
6403	31859	47.412033936982	0.75
6403	31865	47.417037413208	0.75
6403	31951	47.478887690878	0.625
6403	33432	48.78415007616	-0.875
6403	34194	49.28415007616	0.5
6403	34782	49.808973582179	0.5
6403	35053	50.112764664817	0.75
6403	35725	50.718651607068	0.25
6403	36630	51.518651607068	0
6403	36638	51.526672975307	0.375
6403	37026	51.826215265641	0.625
6403	37518	52.227772975307	0.125
6403	37525	52.23164673111	0.625
6403	38256	52.83274673111	0.125
6403	38493	53.03274673111	0.75
6403	39085	53.551288246864	0.375
6403	39316	53.703713551766	0.375
6403	39336	53.705389636033	1
6403	39567	53.905389636033	0.875
6403	40089	54.314393828145	0.625
6403	40181	54.392174652681	0.875
6403	40933	54.998995558724	0.25
6403	41411	55.398995558724	0.5
6403	42672	56.408264829492	-0.125
6403	43334	56.91658327085	0.875
6403	43541	57.12455056229	0.75
6403	44768	58.22455056229	-0.25
6403	45413	58.83021509069	0.375
6403	45416	58.831170524988	0.375
6403	45774	59.134829395502	0.75
6403	45779	59.136919010053	0.75
6403	46090	59.357584195021	0.625
6403	46413	59.637706914848	0.5
6403	46419	59.642327423775	0.5
6403	46585	59.798488037743	0.875
6403	46631	59.858739806611	0.5
6403	46847	60.026350325705	0.25
6403	47341	60.43381252994	0.5
6403	48459	61.33381252994	-0.125
6403	49478	62.140849126637	0.125
6403	49492	62.1540898893	0.375
6403	50221	62.764121206745	0.25
6403	50852	63.264121206745	0.5
6403	51377	63.666607465896	0.75
6403	51650	63.869405596186	0.375
6403	51785	63.968556118196	0.625
6403	52937	64.770304322924	-0.125
6403	54226	65.820313547599	0.875
6403	54734	66.320313547599	0.5
6403	55032	66.62230311428	0.75
6403	55578	67.029223912063	0.5
6403	56055	67.429223912063	0.625
6403	56545	67.931682817363	0.375
6403	56829	68.148617856882	0.625
6403	57053	68.35709534574	0.875
6403	57565	68.75819534574	0.5
6403	58279	69.25819534574	0.5
6403	58517	69.402921019865	0.5
6403	58600	69.458370487206	0.75
6403	58921	69.671764814025	0.75
6403	59057	69.772763210518	0.5
6403	59331	69.974665791534	0.75
6403	59687	70.282139924649	0.75
6403	59759	70.368195399864	0.875
6403	60779	71.110756781199	0
6403	61762	71.920270764633	0
6403	61983	72.120270764633	0.875
6403	63185	73.124714519983	-0.125
6403	64040	73.920466462729	0.125
6403	64383	74.227608514625	0.75
6403	64386	74.227997165527	-0.25
6403	64800	74.529097165527	0.625
6403	65029	74.729097165527	0.875
6403	65558	75.136098473187	0.625
6403	66227	75.628197165527	0.25
6403	66672	75.933734080589	0.625
6403	67564	76.733734080589	0.125
6403	67766	76.941612356226	0.875
6403	68197	77.343338463665	0.625
6403	68516	77.559951931125	0.5
6403	68523	77.565950922808	0.875
6403	68886	77.868786162888	0.75
6403	68890	77.873830200892	0.75
6403	68913	77.874930200892	1
6403	69308	78.174930200892	0.75
6403	69690	78.477078016132	0.75
6403	70639	79.282224869883	0.125
6403	70761	79.389431740057	0.875
6403	71353	79.793926422874	0.625
6403	71472	79.886530056056	0
6403	71997	80.288939165721	0.625
6403	72817	80.988939165721	0.25
6403	73193	81.293910797791	0.75
6403	73468	81.499815071083	0.875
6403	73583	81.604878867788	0.875
6403	74338	82.204878867788	0.375
6403	74925	82.707410990682	0.5
6403	76191	83.716992006653	-0.125
6403	76641	84.105655679098	0.875
6403	76754	84.203059491304	0.875
6403	77400	84.713711904603	0.25
6403	77973	85.213711904603	0.5
6403	78442	85.619184550341	0.625
6403	78806	85.928710925192	0.625
6403	79989	86.928710925192	-0.125
6403	80197	87.135332245814	0.875
6403	80895	87.674444265748	0.5
6403	81049	87.839195537014	0
6403	81412	88.14697700021	0.75
6403	81419	88.14861819794	0.75
6403	81617	88.278494212434	0.125
6403	81714	88.348376486565	0.75
6403	81741	88.36366067169	0
6403	81755	88.365333019475	1
6403	81973	88.565333019475	0.875
6403	82423	88.966907029979	0.625
6403	83352	89.768007029979	0
6403	84048	90.375773804615	0.375
6403	84458	90.685374883654	0.75
6403	85866	91.886474883654	-0.875
6403	86259	92.186474883654	0.75
6403	86399	92.312615724274	0.77777777612209
6403	86629	92.517984703566	0.75
6403	86706	92.579412933968	0.75
6403	87077	92.887960961931	0.25
6403	87141	92.919724613897	0.5
6403	87222	92.98713282174	0.5
6403	87686	93.326580229672	0.625
6403	87800	93.392784660545	0.625
6403	87803	93.39520281754	0.625
6403	87813	93.400568339383	0.5
6403	88158	93.607417998667	0.75
6403	89042	94.307417998667	0.125
6403	89563	94.908123247354	0.375
6403	89674	95.007878270561	0.375
6403	89791	95.1156884627	0.875
6403	89982	95.3156884627	0.875
6403	90216	95.517945617926	0.875
6403	90409	95.725021961279	0.875
6403	90852	96.132100865335	0.375
6403	91319	96.532100865335	0.5
6403	91911	97.036634269344	0.5
6403	92351	97.33800281401	0.625
6403	92597	97.559037746282	0.875
6403	93395	98.164858573039	0.375
6403	93602	98.328403283035	0.5
6403	93933	98.571299682107	0.625
6403	94132	98.694423369313	0.625
6403	94636	99.097246325517	0.5
6403	95262	99.597246325517	0.5
6403	95925	100.206649895091	0.375
6403	96316	100.578981330263	0.125
6403	97466	101.482369056146	-0.125
6403	98176	102.082369056146	0.375
6403	98827	102.609116075685	0.625
6403	99141	102.889431007406	0.125
6403	99533	103.209241596268	0.375
6403	100120	103.712278975231	0.375
6403	100407	103.912278975231	0.875
6403	100565	104.039954995324	0.875
6403	100779	104.22055724351	0.75
6403	100829	104.249092491863	0.875
6403	101041	104.428687998589	0.875
6403	101192	104.547021491801	0.375
6403	102661	105.655538189711	-0.375
6403	103211	106.155538189711	0.5
6403	103617	106.52223060959	0.375
6403	103773	106.664543944459	0.5
6403	104201	107.024466582427	0.5
6403	104458	107.231930908751	0.875
6403	104540	107.263336752108	0.875
6403	104897	107.568181572483	0
6403	105473	108.071030858827	0.375
6403	105907	108.471030858827	0.625
6403	106352	108.876233566016	0.625
6403	106924	109.311893849963	0.625
6403	107429	109.719472920565	0.5
6403	107446	109.720572920565	1
6403	108172	110.320572920565	0.375
6403	108733	110.827116227764	0.5
6403	109027	111.106110793477	0.375
6403	109463	111.432617600829	0.375
6403	110386	112.234060171812	-0.25
6403	110775	112.534060171812	0.75
6403	111139	112.83839000523	0.75
6403	111600	113.248161695004	0.375
6403	112557	114.04852862052	0.125
6403	113530	114.853522844922	0
6403	114314	115.453522844922	0.25
6403	114515	115.653637898829	0.875
6403	114826	115.956353665815	0.75
6403	115442	116.561255750106	0.375
6403	115458	116.565634089863	0.375
6403	115711	116.766834216655	0.875
6403	116433	117.368182457369	0.25
6403	116961	117.868182457369	0.5
6403	117508	118.270502881754	0.625
6403	117527	118.274880418684	0.625
6403	118161	118.680236974391	0.5
6403	119044	119.280236974391	0.25
6403	120334	120.39553557487	0.125
6403	120570	120.59553557487	0.875
6403	120800	120.797290952331	0.875
6403	121113	121.103024698923	0.75
6403	121588	121.50549643796	0.625
6403	121876	121.708888522807	0.75
6403	123444	122.981867428741	0.25
6403	124056	123.481867428741	0.5
6403	124319	123.689614420488	0.875
6403	125107	124.389682941168	0.125
6403	125219	124.511349445978	0.5
6403	125654	124.822736789088	0.625
6403	125832	124.995679566121	0.375
6403	126143	125.222945514674	0.25
6403	126158	125.226342525367	0.625
6403	126397	125.421790944614	0.5
6403	126656	125.62721859517	0.75
6403	127434	126.22721859517	0.375
6403	128181	126.83560790609	0.375
6403	128647	127.23670790609	0.5
6403	129771	128.03670790609	-0.125
6403	130131	128.339242819797	0.75
6403	131296	129.340342819797	-0.25
6403	131876	129.840342819797	0.375
6403	132796	130.696373209883	0.125
6403	133057	130.942485284182	-0.375
6403	133356	131.198451649455	0.5
6403	133700	131.500319375198	0.25
6403	133816	131.617357365033	0.625
6403	133821	131.645489921968	0.25
6403	135008	132.65582358406	-0.375
6403	135402	133.05582358406	0.5
6404	221	20.201	0.2
6404	400	20.501	0.3
6404	782	21.107293062712	0.6
6404	1079	21.410226579997	0.3
6404	1383	21.710226579997	0.3
6404	1633	21.919306168554	0.2
6404	2413	22.619306168554	0.7
6404	4334	24.122031433796	1.5
6404	4624	24.33421313966	0.2
6404	4907	24.544703872392	0.2
6404	5767	25.244703872392	0.7
6404	6205	25.646972418336	0.4
6404	6309	25.744072030167	0.3
6404	6558	25.9515318534	0.3
6404	6741	26.144686902131	0.4
6404	7084	26.457627729406	0.5
6404	7168	26.547593202291	0.4
6404	7392	26.751208845089	0.2
6404	8026	27.351208845089	0.6
6404	8234	27.561032531751	0.2
6404	8971	28.168502080911	0.6
6404	9182	28.308443937832	0.5
6404	9689	28.619435477669	0.3
6404	10250	29.019435477669	0.4
6404	10466	29.229388000235	0.2
6404	11005	29.630488000235	0.4
6404	11482	30.030488000235	0.4
6404	11805	30.334715610984	0.3
6404	12412	30.83641496518	0.5
6404	13269	31.53751496518	0.7
6404	13421	31.63751496518	0.1
6404	14235	32.245911879427	0.6
6404	14312	32.305686853399	0.6
6404	14460	32.446131157026	0.2
6404	14705	32.647231157026	0.2
6404	15076	32.950783277831	0.3
6404	16449	34.153066902963	1.2
6404	16677	34.362106635327	0.2
6404	17026	34.669081211286	0.3
6404	17183	34.771701641391	0.1
6404	18423	35.871701641391	1.1
6404	18730	36.172801641391	0.3
6404	19377	36.772801641391	0.6
6404	19823	37.182009749451	0.4
6404	20320	37.663801430291	0.5
6404	20362	37.688678816008	0.5
6404	20424	37.761478946178	0.2
6404	20798	38.065170841614	0.4
6404	20827	38.075705637008	0.3
6404	21205	38.37086303138	0.4
6404	21233	38.381538776364	0.3
6404	21254	38.392106768559	0.7
6404	21466	38.513176306616	0.3
6404	21528	38.567799932152	0.5
6404	21573	38.600343819498	0.2
6404	22309	39.20787578211	0.6
6404	22722	39.50787578211	0.3
6404	22946	39.715993696321	0.2
6404	23468	40.121761835982	0.4
6404	24437	40.921761835982	0.8
6404	24710	41.131011756147	0.2
6404	24869	41.28032361359	0.2
6404	25268	41.689004000207	0.4
6404	25319	41.741245388521	0.6
6404	25458	41.84191666684	0.1
6404	25522	41.892366063301	0.2
6404	26235	42.398875395006	0.5
6404	27049	43.098875395006	0.7
6404	27563	43.608098730933	0.5
6404	27842	43.827415649745	0.2
6404	27869	43.8542636682	0.2
6404	28709	44.562645487216	0.7
6404	29676	45.462645487216	0.9
6404	30240	45.965109536253	0.5
6404	30591	46.305831942894	0.5
6404	31295	46.906871467184	0.2
6404	31506	47.072200665365	1.1
6404	31524	47.108305226751	0.8
6404	31527	47.111293906886	0.2
6404	31859	47.412033936982	0.3
6404	31865	47.417037413208	0.3
6404	31951	47.478887690878	0.4
6404	33432	48.78415007616	1.3
6404	34194	49.28415007616	0.5
6404	34782	49.808973582179	0.5
6404	35053	50.112764664817	0.3
6404	35725	50.718651607068	0.6
6404	36630	51.518651607068	0.8
6404	36638	51.526672975307	0.6
6404	37026	51.826215265641	0.3
6404	37518	52.227772975307	0.7
6404	37525	52.23164673111	0.4
6404	38256	52.83274673111	0.6
6404	38493	53.03274673111	0.2
6404	39085	53.551288246864	0.5
6404	39316	53.703713551766	0.6
6404	39336	53.705389636033	0
6404	39567	53.905389636033	0.2
6404	40089	54.314393828145	0.4
6404	40181	54.392174652681	0.2
6404	40933	54.998995558724	0.6
6404	41411	55.398995558724	0.4
6404	42672	56.408264829492	1
6404	43334	56.91658327085	0.2
6404	43541	57.12455056229	0.2
6404	44768	58.22455056229	1.1
6404	45413	58.83021509069	0.6
6404	45416	58.831170524988	0.6
6404	45774	59.134829395502	0.3
6404	45779	59.136919010053	0.3
6404	46090	59.357584195021	0.4
6404	46413	59.637706914848	0.5
6404	46419	59.642327423775	0.5
6404	46585	59.798488037743	0.2
6404	46631	59.858739806611	0.5
6404	46847	60.026350325705	0.7
6404	47341	60.43381252994	0.4
6404	48459	61.33381252994	0.9
6404	49478	62.140849126637	0.8
6404	49492	62.1540898893	0.6
6404	50221	62.764121206745	0.6
6404	50852	63.264121206745	0.5
6404	51377	63.666607465896	0.3
6404	51650	63.869405596186	0.6
6404	51785	63.968556118196	0.3
6404	52937	64.770304322924	0.8
6404	54226	65.820313547599	0.1
6404	54734	66.320313547599	0.5
6404	55032	66.62230311428	0.3
6404	55578	67.029223912063	0.4
6404	56055	67.429223912063	0.4
6404	56545	67.931682817363	0.5
6404	56829	68.148617856882	0.4
6404	57053	68.35709534574	0.2
6404	57565	68.75819534574	0.4
6404	58279	69.25819534574	0.5
6404	58517	69.402921019865	0.5
6404	58600	69.458370487206	0.2
6404	58921	69.671764814025	0.2
6404	59057	69.772763210518	0.5
6404	59331	69.974665791534	0.2
6404	59687	70.282139924649	0.3
6404	59759	70.368195399864	0.2