file 1031053 1369933138                                         
version 2
run Stability-81-20130528-00:55:32-21385
attr configname Stability
attr datetime 20130528-00:55:32
attr experiment Stability
attr inifile omnetpp.ini
attr iterationvars $0=1e-2
attr iterationvars2 "$0=1e-2, $repetition=1"
attr measurement $0=1e-2
attr network Network
attr processid 21385
attr repetition 1
attr replication #1
attr resultdir results
attr runnumber 81
attr seedset 81
vector 7953  Network.churner  inGoingSizeSig:vector  ETV
7953	907000 124053 23 138205 20 135.642242598402 4097 0 31 125765 3882243
vector 7872  Network.dyn_peer[5]  lookupHopsSig:vector  ETV
7872	144738 9036 45 136869 20.00006 132.790061501397 307 0 19 1273 8867
vector 7873  Network.dyn_peer[5]  lookupStabilitySig:vector  ETV
7873	153774 10066 45 136869 20.00006 132.790061501397 307 -1.375 1 148.09722219408 127.48553238202
vector 7874  Network.dyn_peer[5]  lookupTimeSig:vector  ETV
7874	163840 9602 45 136869 20.00006 132.790061501397 307 0 1.9 142.3 96.33
vector 7911  Network.dyn_peer[18]  lookupHopsSig:vector  ETV
7911	518724 9163 88 137849 20.00019 133.758562460303 311 0 19 1313 8859
vector 7912  Network.dyn_peer[18]  lookupStabilitySig:vector  ETV
7912	527887 10182 88 137849 20.00019 133.758562460303 311 -1.375 1 146.94444443285 121.26813270023
vector 7913  Network.dyn_peer[18]  lookupTimeSig:vector  ETV
7913	538069 9740 88 137849 20.00019 133.758562460303 311 0 1.8 146 94.14
vector 7923  Network.dyn_peer[22]  lookupHopsSig:vector  ETV
7923	633040 9129 104 137962 20.00023 133.946093476939 311 0 13 1225 7227
vector 7924  Network.dyn_peer[22]  lookupStabilitySig:vector  ETV
7924	642169 10125 104 137962 20.00023 133.946093476939 311 -0.625 1 157.9999999851 117.82677467186
vector 7925  Network.dyn_peer[22]  lookupTimeSig:vector  ETV
7925	652294 9708 104 137962 20.00023 133.946093476939 311 0 1.3 137.6 81.88
vector 7926  Network.dyn_peer[23]  lookupHopsSig:vector  ETV
7926	662002 8612 111 137432 20.00024 133.336881337421 293 0 21 1296 9674
vector 7927  Network.dyn_peer[23]  lookupStabilitySig:vector  ETV
7927	670614 9602 111 137432 20.00024 133.336881337421 293 -1.625 1 131.30555553734 120.40046295082
vector 7928  Network.dyn_peer[23]  lookupTimeSig:vector  ETV
7928	680216 9143 111 137432 20.00024 133.336881337421 293 0 1.9 141.2 97.6
vector 7950  Network.dyn_peer[31]  lookupHopsSig:vector  ETV
7950	880444 8369 139 137119 20.00032 133.036781337421 284 0 17 1264 8694
vector 7951  Network.dyn_peer[31]  lookupStabilitySig:vector  ETV
7951	888813 9299 139 137119 20.00032 133.036781337421 284 -1.125 1 126.06944441795 103.90065584065
vector 7952  Network.dyn_peer[31]  lookupTimeSig:vector  ETV
7952	898112 8888 139 137119 20.00032 133.036781337421 284 0 1.6 138.2 91.74
vector 7863  Network.dyn_peer[2]  lookupHopsSig:vector  ETV
7863	62666 8587 147 137328 20.10003 133.231944671803 292 0 25 1156 7510
vector 7864  Network.dyn_peer[2]  lookupStabilitySig:vector  ETV
7864	71253 9539 147 137328 20.10003 133.231944671803 292 -2.125 1 147.5 120.34375
vector 7865  Network.dyn_peer[2]  lookupTimeSig:vector  ETV
7865	80792 9138 147 137328 20.10003 133.231944671803 292 0 2.3 129.8 81.42
vector 7866  Network.dyn_peer[3]  lookupHopsSig:vector  ETV
7866	89930 8458 152 136826 20.10004 132.746910737398 288 0 21 1200 8274
vector 7867  Network.dyn_peer[3]  lookupStabilitySig:vector  ETV
7867	98388 9395 152 136826 20.10004 132.746910737398 288 -1.625 1 138 117.28125
vector 7868  Network.dyn_peer[3]  lookupTimeSig:vector  ETV
7868	107783 8991 152 136826 20.10004 132.746910737398 288 0 1.8 132.9 86.17
vector 7890  Network.dyn_peer[11]  lookupHopsSig:vector  ETV
7890	311908 9172 164 137928 20.10012 133.860017127446 312 0 21 1252 7810
vector 7891  Network.dyn_peer[11]  lookupStabilitySig:vector  ETV
7891	321080 10216 164 137928 20.10012 133.860017127446 312 -1.625 1 155.51388888806 121.05574845532
vector 7892  Network.dyn_peer[11]  lookupTimeSig:vector  ETV
7892	331296 9758 164 137928 20.10012 133.860017127446 312 0 1.8 140.6 85.34
vector 7899  Network.dyn_peer[14]  lookupHopsSig:vector  ETV
7899	399047 9311 171 138132 20.10015 134.438857845635 316 0 22 1223 7473
vector 7900  Network.dyn_peer[14]  lookupStabilitySig:vector  ETV
7900	408358 10383 171 138132 20.10015 134.438857845635 316 -1.75 1 163.2499999702 127.11805552906
vector 7901  Network.dyn_peer[14]  lookupTimeSig:vector  ETV
7901	418741 9903 171 138132 20.10015 134.438857845635 316 0 1.8 137.8 82.16
vector 7905  Network.dyn_peer[16]  lookupHopsSig:vector  ETV
7905	457105 9912 177 137165 20.10017 133.057876745818 337 0 16 1287 7621
vector 7906  Network.dyn_peer[16]  lookupStabilitySig:vector  ETV
7906	467017 11030 177 137165 20.10017 133.057876745818 337 -1 1 176.38888886571 134.47878083403
vector 7907  Network.dyn_peer[16]  lookupTimeSig:vector  ETV
7907	478047 10553 177 137165 20.10017 133.057876745818 337 0 1.5 146.5 85.83
vector 7929  Network.dyn_peer[24]  lookupHopsSig:vector  ETV
7929	689359 9385 188 138049 20.10025 134.145282112316 319 0 16 1201 6995
vector 7930  Network.dyn_peer[24]  lookupStabilitySig:vector  ETV
7930	698744 10429 188 138049 20.10025 134.145282112316 319 -1 1 168.97222220898 128.15933640283
vector 7931  Network.dyn_peer[24]  lookupTimeSig:vector  ETV
7931	709173 9981 188 138049 20.10025 134.145282112316 319 0 1.5 137 79.6
vector 7944  Network.dyn_peer[29]  lookupHopsSig:vector  ETV
7944	827482 8411 197 136941 20.1003 132.843238556084 286 0 18 1263 8691
vector 7945  Network.dyn_peer[29]  lookupStabilitySig:vector  ETV
7945	835893 9339 197 136941 20.1003 132.843238556084 286 -1.25 1 128.23611108214 106.170717565
vector 7946  Network.dyn_peer[29]  lookupTimeSig:vector  ETV
7946	845232 8936 197 136941 20.1003 132.843238556084 286 0 1.7 138.1 91.27
vector 7860  Network.dyn_peer[1]  lookupHopsSig:vector  ETV
7860	34151 8960 207 138203 20.20002 135.632622115686 306 0 19 1244 7866
vector 7861  Network.dyn_peer[1]  lookupStabilitySig:vector  ETV
7861	43111 10021 207 138203 20.20002 135.632622115686 306 -1.375 1 150.66666664183 118.08217590495
vector 7862  Network.dyn_peer[1]  lookupTimeSig:vector  ETV
7862	53132 9534 207 138203 20.20002 135.632622115686 306 0 1.7 139.9 86.03
vector 7875  Network.dyn_peer[6]  lookupHopsSig:vector  ETV
7875	173442 8486 215 137268 20.20007 133.158427333118 289 0 24 1313 9405
vector 7876  Network.dyn_peer[6]  lookupStabilitySig:vector  ETV
7876	181928 9407 215 137268 20.20007 133.158427333118 289 -2 1 124.875 107.703125
vector 7877  Network.dyn_peer[6]  lookupTimeSig:vector  ETV
7877	191335 9018 215 137268 20.20007 133.158427333118 289 0 2.3 144.9 101.27
vector 7878  Network.dyn_peer[7]  lookupHopsSig:vector  ETV
7878	200353 8720 220 136933 20.20008 132.840935255545 297 0 15 1310 8318
vector 7879  Network.dyn_peer[7]  lookupStabilitySig:vector  ETV
7879	209073 9705 220 136933 20.20008 132.840935255545 297 -0.875 1 133.34722220898 99.581211402828
vector 7880  Network.dyn_peer[7]  lookupTimeSig:vector  ETV
7880	218778 9279 220 136933 20.20008 132.840935255545 297 0 1.5 145.4 92.7
vector 7887  Network.dyn_peer[10]  lookupHopsSig:vector  ETV
7887	283418 8964 227 137873 20.20011 133.803025893135 305 0 19 1192 7170
vector 7888  Network.dyn_peer[10]  lookupStabilitySig:vector  ETV
7888	292382 9977 227 137873 20.20011 133.803025893135 305 -1.375 1 156.05555555224 119.08989197163
vector 7889  Network.dyn_peer[10]  lookupTimeSig:vector  ETV
7889	302359 9549 227 137873 20.20011 133.803025893135 305 0 1.7 133.6 78.46
vector 7896  Network.dyn_peer[13]  lookupHopsSig:vector  ETV
7896	369115 9429 234 137214 20.20014 133.132745380318 321 0 19 1252 7748
vector 7897  Network.dyn_peer[13]  lookupStabilitySig:vector  ETV
7897	378544 10490 234 137214 20.20014 133.132745380318 321 -1.375 1 164.5 129.0625
vector 7898  Network.dyn_peer[13]  lookupTimeSig:vector  ETV
7898	389034 10013 234 137214 20.20014 133.132745380318 321 0 1.8 141.3 85.71
vector 7908  Network.dyn_peer[17]  lookupHopsSig:vector  ETV
7908	488600 9477 242 136989 20.20018 132.887679298551 322 0 16 1265 7715
vector 7909  Network.dyn_peer[17]  lookupStabilitySig:vector  ETV
7909	498077 10559 242 136989 20.20018 132.887679298551 322 -1 1 164.06944444031 126.39062499338
vector 7910  Network.dyn_peer[17]  lookupTimeSig:vector  ETV
7910	508636 10088 242 136989 20.20018 132.887679298551 322 0 1.6 143.1 85.77
vector 7869  Network.dyn_peer[4]  lookupHopsSig:vector  ETV
7869	116774 8816 269 138009 20.30005 134.051632944087 300 0 20 1261 8361
vector 7870  Network.dyn_peer[4]  lookupStabilitySig:vector  ETV
7870	125590 9766 269 138009 20.30005 134.051632944087 300 -1.5 1 142.48611110449 115.40297067754
vector 7871  Network.dyn_peer[4]  lookupTimeSig:vector  ETV
7871	135356 9382 269 138009 20.30005 134.051632944087 300 0 1.9 139.6 90.44
vector 7881  Network.dyn_peer[8]  lookupHopsSig:vector  ETV
7881	228057 8321 277 137644 20.30009 133.548388519433 283 0 14 1221 7765
vector 7882  Network.dyn_peer[8]  lookupStabilitySig:vector  ETV
7882	236378 9223 277 137644 20.30009 133.548388519433 283 -0.75 1 130.375 99.078125
vector 7883  Network.dyn_peer[8]  lookupTimeSig:vector  ETV
7883	245601 8850 277 137644 20.30009 133.548388519433 283 0 1.5 134 82.66
vector 7884  Network.dyn_peer[9]  lookupHopsSig:vector  ETV
7884	254451 9129 282 137757 20.3001 133.649121328908 311 0 26 1310 8744
vector 7885  Network.dyn_peer[9]  lookupStabilitySig:vector  ETV
7885	263580 10124 282 137757 20.3001 133.649121328908 311 -2.25 1 147.45833331347 120.15798609787
vector 7886  Network.dyn_peer[9]  lookupTimeSig:vector  ETV
7886	273704 9714 282 137757 20.3001 133.649121328908 311 0 2.4 145.9 94.89
vector 7914  Network.dyn_peer[19]  lookupHopsSig:vector  ETV
7914	547809 9024 294 138144 20.3002 134.456254971457 307 0 14 1221 7385
vector 7915  Network.dyn_peer[19]  lookupStabilitySig:vector  ETV
7915	556833 10085 294 138144 20.3002 134.456254971457 307 -0.75 1 154.79166662693 117.00983793426
vector 7916  Network.dyn_peer[19]  lookupTimeSig:vector  ETV
7916	566918 9608 294 138144 20.3002 134.456254971457 307 0 1.2 139 83.3
vector 7938  Network.dyn_peer[27]  lookupHopsSig:vector  ETV
7938	775764 8083 307 136957 20.30028 132.847994989543 275 0 18 1164 7764
vector 7939  Network.dyn_peer[27]  lookupStabilitySig:vector  ETV
7939	783847 8989 307 136957 20.30028 132.847994989543 275 -1.25 1 129.58333332837 105.41358024066
vector 7940  Network.dyn_peer[27]  lookupTimeSig:vector  ETV
7940	792836 8595 307 136957 20.30028 132.847994989543 275 0 1.7 127.5 82.23
vector 7893  Network.dyn_peer[12]  lookupHopsSig:vector  ETV
7893	341054 8833 337 138093 20.40013 134.268653756604 300 0 24 1264 8572
vector 7894  Network.dyn_peer[12]  lookupStabilitySig:vector  ETV
7894	349887 9840 337 138093 20.40013 134.268653756604 300 -2 1 142 117.9375
vector 7895  Network.dyn_peer[12]  lookupTimeSig:vector  ETV
7895	359727 9388 337 138093 20.40013 134.268653756604 300 0 2.2 142.3 94.25
vector 7902  Network.dyn_peer[15]  lookupHopsSig:vector  ETV
7902	428644 8967 345 137357 20.40016 133.245367578409 305 0 22 1262 8332
vector 7903  Network.dyn_peer[15]  lookupStabilitySig:vector  ETV
7903	437611 9958 345 137357 20.40016 133.245367578409 305 -1.75 1 147.38888886571 119.79475306949
vector 7904  Network.dyn_peer[15]  lookupTimeSig:vector  ETV
7904	447569 9536 345 137357 20.40016 133.245367578409 305 0 1.8 140.5 89.09
vector 7917  Network.dyn_peer[20]  lookupHopsSig:vector  ETV
7917	576526 9175 353 137287 20.40021 133.190061501397 313 0 28 1275 8379
vector 7918  Network.dyn_peer[20]  lookupStabilitySig:vector  ETV
7918	585701 10193 353 137287 20.40021 133.190061501397 313 -2.5 1 153.65277777612 125.21431326903
vector 7919  Network.dyn_peer[20]  lookupTimeSig:vector  ETV
7919	595894 9769 353 137287 20.40021 133.190061501397 313 0 2.6 143 91.42
vector 7920  Network.dyn_peer[21]  lookupHopsSig:vector  ETV
7920	605663 8613 358 138116 20.40022 134.361060949388 294 0 21 1232 8154
vector 7921  Network.dyn_peer[21]  lookupStabilitySig:vector  ETV
7921	614276 9599 358 138116 20.40022 134.361060949388 294 -1.625 1 140.15277773887 113.5839119962
vector 7922  Network.dyn_peer[21]  lookupTimeSig:vector  ETV
7922	623875 9165 358 138116 20.40022 134.361060949388 294 0 2 138.3 88.99
vector 7932  Network.dyn_peer[25]  lookupHopsSig:vector  ETV
7932	719154 8690 365 137572 20.40026 133.495472272129 296 0 14 1212 7334
vector 7933  Network.dyn_peer[25]  lookupStabilitySig:vector  ETV
7933	727844 9654 365 137572 20.40026 133.495472272129 296 -0.75 1 144.56944441795 107.65065584065
vector 7934  Network.dyn_peer[25]  lookupTimeSig:vector  ETV
7934	737498 9259 365 137572 20.40026 133.495472272129 296 0.1 1.4 134.3 79.13
vector 7935  Network.dyn_peer[26]  lookupHopsSig:vector  ETV
7935	746757 9132 370 137626 20.40027 133.545993476939 310 0 19 1277 8311
vector 7936  Network.dyn_peer[26]  lookupStabilitySig:vector  ETV
7936	755889 10174 370 137626 20.40027 133.545993476939 310 -1.375 1 150.43055555224 120.66801697163
vector 7937  Network.dyn_peer[26]  lookupTimeSig:vector  ETV
7937	766063 9701 370 137626 20.40027 133.545993476939 310 0 1.9 143.9 92.19
vector 7941  Network.dyn_peer[28]  lookupHopsSig:vector  ETV
7941	801431 8208 376 137550 20.40029 133.479427061217 278 0 19 1219 8353
vector 7942  Network.dyn_peer[28]  lookupStabilitySig:vector  ETV
7942	809639 9124 376 137550 20.40029 133.479427061217 278 -1.375 1 125.625 103.765625
vector 7943  Network.dyn_peer[28]  lookupTimeSig:vector  ETV
7943	818763 8719 376 137550 20.40029 133.479427061217 278 0 1.8 134.9 90.59
vector 7857  Network.dyn_peer[0]  lookupHopsSig:vector  ETV
7857	6438 8720 396 137808 20.50001 133.736257537046 296 0 22 1285 8277
vector 7858  Network.dyn_peer[0]  lookupStabilitySig:vector  ETV
7858	15158 9712 396 137808 20.50001 133.736257537046 296 -1.75 1 135.56111106277 104.28822525516
vector 7859  Network.dyn_peer[0]  lookupTimeSig:vector  ETV
7859	24870 9281 396 137808 20.50001 133.736257537046 296 0 1.9 143.4 91.18
vector 7947  Network.dyn_peer[30]  lookupHopsSig:vector  ETV
7947	854168 8263 424 135864 20.50031 131.929657998263 281 0 20 1085 6477
vector 7948  Network.dyn_peer[30]  lookupStabilitySig:vector  ETV
7948	862431 9218 424 135864 20.50031 131.929657998263 281 -1.5 1 145.38888888806 110.97762345532
vector 7949  Network.dyn_peer[30]  lookupTimeSig:vector  ETV
7949	871649 8795 424 135864 20.50031 131.929657998263 281 0 1.7 121.8 70.86
