file 1042409 1369933138                                         
version 2
run Stability-77-20130528-00:55:15-21385
attr configname Stability
attr datetime 20130528-00:55:15
attr experiment Stability
attr inifile omnetpp.ini
attr iterationvars $0=1e-1
attr iterationvars2 "$0=1e-1, $repetition=7"
attr measurement $0=1e-1
attr network Network
attr processid 21385
attr repetition 7
attr replication #7
attr resultdir results
attr runnumber 77
attr seedset 77
vector 7565  Network.churner  inGoingSizeSig:vector  ETV
7565	918248 124161 22 138957 20 138.775317516992 4097 0 31 125764 3882172
vector 7487  Network.dyn_peer[6]  lookupHopsSig:vector  ETV
7487	171704 8551 47 138920 20.0007 138.675673380092 290 0 16 1227 8279
vector 7488  Network.dyn_peer[6]  lookupStabilitySig:vector  ETV
7488	180255 9527 47 138920 20.0007 138.675673380092 290 -1 1 136.69444443285 112.70563270023
vector 7489  Network.dyn_peer[6]  lookupTimeSig:vector  ETV
7489	189782 9091 47 138920 20.0007 138.675673380092 290 0 1.5 137.4 90.34
vector 7493  Network.dyn_peer[8]  lookupHopsSig:vector  ETV
7493	226762 9231 57 138935 20.0009 138.711018172486 315 0 21 1229 7507
vector 7494  Network.dyn_peer[8]  lookupStabilitySig:vector  ETV
7494	235993 10274 57 138935 20.0009 138.711018172486 315 -1.625 1 161.47222219408 125.15277775129
vector 7495  Network.dyn_peer[8]  lookupTimeSig:vector  ETV
7495	246267 9833 57 138935 20.0009 138.711018172486 315 0 1.8 139.4 83.76
vector 7496  Network.dyn_peer[9]  lookupHopsSig:vector  ETV
7496	256100 9582 64 137736 20.001 137.319978389715 326 0 16 1299 8281
vector 7497  Network.dyn_peer[9]  lookupStabilitySig:vector  ETV
7497	265682 10626 64 137736 20.001 137.319978389715 326 -1 1 163.625 130.640625
vector 7498  Network.dyn_peer[9]  lookupTimeSig:vector  ETV
7498	276308 10176 64 137736 20.001 137.319978389715 326 0 1.5 147.3 91.45
vector 7517  Network.dyn_peer[16]  lookupHopsSig:vector  ETV
7517	455794 8844 89 138785 20.0017 138.472368063179 300 0 21 1280 8682
vector 7518  Network.dyn_peer[16]  lookupStabilitySig:vector  ETV
7518	464638 9807 89 138785 20.0017 138.472368063179 300 -1.625 1 140 115.65625
vector 7519  Network.dyn_peer[16]  lookupTimeSig:vector  ETV
7519	474445 9415 89 138785 20.0017 138.472368063179 300 0 1.9 144.5 96.35
vector 7532  Network.dyn_peer[21]  lookupHopsSig:vector  ETV
7532	597224 9053 108 138328 20.0022 137.933323551765 308 0 17 1237 7505
vector 7533  Network.dyn_peer[21]  lookupStabilitySig:vector  ETV
7533	606277 10101 108 138328 20.0022 137.933323551765 308 -1.125 1 153.47222220153 116.08873455318
vector 7534  Network.dyn_peer[21]  lookupTimeSig:vector  ETV
7534	616378 9640 108 138328 20.0022 137.933323551765 308 0 1.6 141.2 87.08
vector 7469  Network.dyn_peer[0]  lookupHopsSig:vector  ETV
7469	6438 8542 146 138468 20.1001 138.106516809492 290 0 21 1295 9159
vector 7470  Network.dyn_peer[0]  lookupStabilitySig:vector  ETV
7470	14980 9506 146 138468 20.1001 138.106516809492 290 -1.625 1 128.26388886571 109.49286263592
vector 7471  Network.dyn_peer[0]  lookupTimeSig:vector  ETV
7471	24486 9081 146 138468 20.1001 138.106516809492 290 0 1.8 140.7 93.59
vector 7478  Network.dyn_peer[3]  lookupHopsSig:vector  ETV
7478	90067 9032 153 137970 20.1004 137.514121013362 307 0 24 1276 7958
vector 7479  Network.dyn_peer[3]  lookupStabilitySig:vector  ETV
7479	99099 10069 153 137970 20.1004 137.514121013362 307 -2 1 147.70833331347 112.46855708037
vector 7480  Network.dyn_peer[3]  lookupTimeSig:vector  ETV
7480	109168 9593 153 137970 20.1004 137.514121013362 307 0 2 142.9 87.23
vector 7502  Network.dyn_peer[11]  lookupHopsSig:vector  ETV
7502	314473 8960 164 138885 20.1012 138.584822508241 304 0 22 1370 9708
vector 7503  Network.dyn_peer[11]  lookupStabilitySig:vector  ETV
7503	323433 9949 164 138885 20.1012 138.584822508241 304 -1.75 1 132.83333331347 113.23611109787
vector 7504  Network.dyn_peer[11]  lookupTimeSig:vector  ETV
7504	333382 9527 164 138885 20.1012 138.584822508241 304 0 2.1 151.3 103.33
vector 7550  Network.dyn_peer[27]  lookupHopsSig:vector  ETV
7550	773931 8954 183 138553 20.1028 138.204629575262 305 0 20 1307 9203
vector 7551  Network.dyn_peer[27]  lookupStabilitySig:vector  ETV
7551	782885 9922 183 138553 20.1028 138.204629575262 305 -1.5 1 141.72222220898 122.08063271016
vector 7552  Network.dyn_peer[27]  lookupTimeSig:vector  ETV
7552	792807 9514 183 138553 20.1028 138.204629575262 305 0 1.7 145.1 97.07
vector 7472  Network.dyn_peer[1]  lookupHopsSig:vector  ETV
7472	33567 9128 195 138529 20.2002 138.192181590131 310 0 21 1270 8108
vector 7473  Network.dyn_peer[1]  lookupStabilitySig:vector  ETV
7473	42695 10153 195 138529 20.2002 138.192181590131 310 -1.625 1 151.30555555224 119.27237653806
vector 7474  Network.dyn_peer[1]  lookupTimeSig:vector  ETV
7474	52848 9712 195 138529 20.2002 138.192181590131 310 0 2 143.6 90.5
vector 7475  Network.dyn_peer[2]  lookupHopsSig:vector  ETV
7475	62560 8672 200 137775 20.2003 137.335472968896 294 0 19 1267 8469
vector 7476  Network.dyn_peer[2]  lookupStabilitySig:vector  ETV
7476	71232 9631 200 137775 20.2003 137.335472968896 294 -1.375 1 135.66666665673 109.6319444312
vector 7477  Network.dyn_peer[2]  lookupTimeSig:vector  ETV
7477	80863 9204 200 137775 20.2003 137.335472968896 294 0 1.9 140.3 91.19
vector 7484  Network.dyn_peer[5]  lookupHopsSig:vector  ETV
7484	145343 8289 207 138854 20.2006 138.5397518073 282 0 27 1230 8902
vector 7485  Network.dyn_peer[5]  lookupStabilitySig:vector  ETV
7485	153632 9251 207 138854 20.2006 138.5397518073 282 -2.375 1 128.34722220898 113.62750771016
vector 7486  Network.dyn_peer[5]  lookupTimeSig:vector  ETV
7486	162883 8821 207 138854 20.2006 138.5397518073 282 0 2.5 137.3 95.75
vector 7490  Network.dyn_peer[7]  lookupHopsSig:vector  ETV
7490	198873 8784 214 138131 20.2008 137.645554477159 299 0 16 1252 7854
vector 7491  Network.dyn_peer[7]  lookupStabilitySig:vector  ETV
7491	207657 9767 214 138131 20.2008 137.645554477159 299 -1 1 142.56944441795 108.77565584065
vector 7492  Network.dyn_peer[7]  lookupTimeSig:vector  ETV
7492	217424 9338 214 138131 20.2008 137.645554477159 299 0 1.6 141.2 88.9
vector 7520  Network.dyn_peer[17]  lookupHopsSig:vector  ETV
7520	483860 8765 226 137766 20.2018 137.330791072541 298 0 18 1304 8720
vector 7521  Network.dyn_peer[17]  lookupStabilitySig:vector  ETV
7521	492625 9772 226 137766 20.2018 137.330791072541 298 -1.25 1 135.09722220898 108.36246140283
vector 7522  Network.dyn_peer[17]  lookupTimeSig:vector  ETV
7522	502397 9310 226 137766 20.2018 137.330791072541 298 0 1.5 144.7 93.91
vector 7523  Network.dyn_peer[18]  lookupHopsSig:vector  ETV
7523	511707 8629 231 138178 20.2019 137.715705011249 293 0 22 1293 9033
vector 7524  Network.dyn_peer[18]  lookupStabilitySig:vector  ETV
7524	520336 9610 231 138178 20.2019 137.715705011249 293 -1.75 1 131.48611109704 110.94888116548
vector 7525  Network.dyn_peer[18]  lookupTimeSig:vector  ETV
7525	529946 9174 231 138178 20.2019 137.715705011249 293 0 2 143.8 97.86
vector 7553  Network.dyn_peer[28]  lookupHopsSig:vector  ETV
7553	802321 9530 245 137919 20.2029 137.454293654778 324 0 18 1322 8528
vector 7554  Network.dyn_peer[28]  lookupStabilitySig:vector  ETV
7554	811851 10576 245 137919 20.2029 137.454293654778 324 -1.25 1 158.75 126.75
vector 7555  Network.dyn_peer[28]  lookupTimeSig:vector  ETV
7555	822427 10138 245 137919 20.2029 137.454293654778 324 0 1.6 150 94.46
vector 7481  Network.dyn_peer[4]  lookupHopsSig:vector  ETV
7481	118761 8365 262 138725 20.3005 138.401915819871 284 0 30 1328 10336
vector 7482  Network.dyn_peer[4]  lookupStabilitySig:vector  ETV
7482	127126 9328 262 138725 20.3005 138.401915819871 284 -2.75 1 118.11111109704 113.55825616548
vector 7483  Network.dyn_peer[4]  lookupTimeSig:vector  ETV
7483	136454 8889 262 138725 20.3005 138.401915819871 284 0 2.7 146.8 107.6
vector 7505  Network.dyn_peer[12]  lookupHopsSig:vector  ETV
7505	342909 8710 272 138029 20.3013 137.55077872489 297 0 17 1240 7790
vector 7506  Network.dyn_peer[12]  lookupStabilitySig:vector  ETV
7506	351619 9723 272 138029 20.3013 137.55077872489 297 -1.125 1 142.08333332837 108.81983024066
vector 7507  Network.dyn_peer[12]  lookupTimeSig:vector  ETV
7507	361342 9266 272 138029 20.3013 137.55077872489 297 0 1.5 138.6 85.08
vector 7508  Network.dyn_peer[13]  lookupHopsSig:vector  ETV
7508	370608 9027 277 137537 20.3014 137.114003597125 307 0 21 1394 9604
vector 7509  Network.dyn_peer[13]  lookupStabilitySig:vector  ETV
7509	379635 10077 277 137537 20.3014 137.114003597125 307 -1.625 1 133.0694444105 108.66030086853
vector 7510  Network.dyn_peer[13]  lookupTimeSig:vector  ETV
7510	389712 9599 277 137537 20.3014 137.114003597125 307 0 2.1 152.8 102.48
vector 7511  Network.dyn_peer[14]  lookupHopsSig:vector  ETV
7511	399311 8999 282 138956 20.3015 138.775217516992 306 0 22 1236 7512
vector 7512  Network.dyn_peer[14]  lookupStabilitySig:vector  ETV
7512	408310 10025 282 138956 20.3015 138.775217516992 306 -1.75 1 151.65277772397 114.3493441461
vector 7513  Network.dyn_peer[14]  lookupTimeSig:vector  ETV
7513	418335 9582 282 138956 20.3015 138.775217516992 306 0 1.8 140.1 84.07
vector 7514  Network.dyn_peer[15]  lookupHopsSig:vector  ETV
7514	427917 8782 287 138589 20.3016 138.230748788636 298 0 20 1311 9563
vector 7515  Network.dyn_peer[15]  lookupStabilitySig:vector  ETV
7515	436699 9757 287 138589 20.3016 138.230748788636 298 -1.5 1 134.19444443285 119.76813270023
vector 7516  Network.dyn_peer[15]  lookupTimeSig:vector  ETV
7516	446456 9338 287 138589 20.3016 138.230748788636 298 0 1.7 146 100.8
vector 7538  Network.dyn_peer[23]  lookupHopsSig:vector  ETV
7538	655725 9122 299 138565 20.3024 138.211274914502 311 0 22 1294 9142
vector 7539  Network.dyn_peer[23]  lookupStabilitySig:vector  ETV
7539	664847 10191 299 138565 20.3024 138.211274914502 311 -1.75 1 149.33333332837 130.44483024066
vector 7540  Network.dyn_peer[23]  lookupTimeSig:vector  ETV
7540	675038 9703 299 138565 20.3024 138.211274914502 311 0 2 144.1 97.13
vector 7541  Network.dyn_peer[24]  lookupHopsSig:vector  ETV
7541	684741 9688 304 138280 20.3025 137.845654477159 330 0 18 1284 7936
vector 7542  Network.dyn_peer[24]  lookupStabilitySig:vector  ETV
7542	694429 10827 304 138280 20.3025 137.845654477159 330 -1.25 1 169.68055552989 133.20042436027
vector 7543  Network.dyn_peer[24]  lookupTimeSig:vector  ETV
7543	705256 10305 304 138280 20.3025 137.845654477159 330 0 1.5 145.7 87.63
vector 7544  Network.dyn_peer[25]  lookupHopsSig:vector  ETV
7544	715561 8565 309 137880 20.3026 137.430791072541 291 0 21 1328 9358
vector 7545  Network.dyn_peer[25]  lookupStabilitySig:vector  ETV
7545	724126 9514 309 137880 20.3026 137.430791072541 291 -1.625 1 125.04166665673 105.2725694312
vector 7546  Network.dyn_peer[25]  lookupTimeSig:vector  ETV
7546	733640 9110 309 137880 20.3026 137.430791072541 291 0 1.9 146.1 99.51
vector 7547  Network.dyn_peer[26]  lookupHopsSig:vector  ETV
7547	742750 9815 314 138359 20.3027 137.945654477159 333 0 17 1347 8419
vector 7548  Network.dyn_peer[26]  lookupStabilitySig:vector  ETV
7548	752565 10930 314 138359 20.3027 137.945654477159 333 -1.125 1 164.68055555224 127.85551697163
vector 7549  Network.dyn_peer[26]  lookupTimeSig:vector  ETV
7549	763495 10436 314 138359 20.3027 137.945654477159 333 0 1.6 151.7 93.81
vector 7556  Network.dyn_peer[29]  lookupHopsSig:vector  ETV
7556	832565 9444 321 137834 20.303 137.399927995816 322 0 17 1285 7715
vector 7557  Network.dyn_peer[29]  lookupStabilitySig:vector  ETV
7557	842009 10516 321 137834 20.303 137.399927995816 322 -1.125 1 161.41666665673 121.3506944312
vector 7558  Network.dyn_peer[29]  lookupTimeSig:vector  ETV
7558	852525 10057 321 137834 20.303 137.399927995816 322 0 1.7 145.5 87.35
vector 7562  Network.dyn_peer[31]  lookupHopsSig:vector  ETV
7562	892419 8134 327 138626 20.3032 138.25348198468 276 0 30 1314 10194
vector 7563  Network.dyn_peer[31]  lookupStabilitySig:vector  ETV
7563	900553 9053 327 138626 20.3032 138.25348198468 276 -2.75 1 111.75 106.78125
vector 7564  Network.dyn_peer[31]  lookupTimeSig:vector  ETV
7564	909606 8642 327 138626 20.3032 138.25348198468 276 0 2.5 144.1 103.83
vector 7499  Network.dyn_peer[10]  lookupHopsSig:vector  ETV
7499	286484 8807 351 138644 20.4011 138.276216672964 298 0 16 1315 8649
vector 7500  Network.dyn_peer[10]  lookupStabilitySig:vector  ETV
7500	295291 9826 351 138644 20.4011 138.276216672964 298 -1 1 133.83333328366 104.60069439146
vector 7501  Network.dyn_peer[10]  lookupTimeSig:vector  ETV
7501	305117 9356 351 138644 20.4011 138.276216672964 298 0 1.4 146.5 94.47
vector 7526  Network.dyn_peer[19]  lookupHopsSig:vector  ETV
7526	539120 9230 365 138820 20.402 138.520078389715 313 0 28 1335 9021
vector 7527  Network.dyn_peer[19]  lookupStabilitySig:vector  ETV
7527	548350 10250 365 138820 20.402 138.520078389715 313 -2.5 1 146.125 120.203125
vector 7528  Network.dyn_peer[19]  lookupTimeSig:vector  ETV
7528	558600 9796 365 138820 20.402 138.520078389715 313 0 2.3 149 97.24
vector 7529  Network.dyn_peer[20]  lookupHopsSig:vector  ETV
7529	568396 9091 370 138601 20.4021 138.235654674079 309 0 18 1310 8644
vector 7530  Network.dyn_peer[20]  lookupStabilitySig:vector  ETV
7530	577487 10070 370 138601 20.4021 138.235654674079 309 -1.25 1 145.29166665673 116.6163194312
vector 7531  Network.dyn_peer[20]  lookupTimeSig:vector  ETV
7531	587557 9667 370 138601 20.4021 138.235654674079 309 0 1.6 146.1 93.77
vector 7535  Network.dyn_peer[22]  lookupHopsSig:vector  ETV
7535	626018 9358 376 138835 20.4023 138.527648452143 317 0 18 1348 8952
vector 7536  Network.dyn_peer[22]  lookupStabilitySig:vector  ETV
7536	635376 10412 376 138835 20.4023 138.527648452143 317 -1.25 1 148.83333325386 119.86612653144
vector 7537  Network.dyn_peer[22]  lookupTimeSig:vector  ETV
7537	645788 9937 376 138835 20.4023 138.527648452143 317 0 1.7 151.8 99.88
vector 7559  Network.dyn_peer[30]  lookupHopsSig:vector  ETV
7559	862582 9406 388 138849 20.4031 138.536540424611 319 0 21 1315 8287
vector 7560  Network.dyn_peer[30]  lookupStabilitySig:vector  ETV
7560	871988 10438 388 138849 20.4031 138.536540424611 319 -1.625 1 154.625 119.734375
vector 7561  Network.dyn_peer[30]  lookupTimeSig:vector  ETV
7561	882426 9993 388 138849 20.4031 138.536540424611 319 0 2 147.4 91.24
