version 2
run Stability-67-20130528-00:54:31-21385
attr configname Stability
attr datetime 20130528-00:54:31
attr experiment Stability
attr inifile omnetpp.ini
attr iterationvars $0=1e0
attr iterationvars2 "$0=1e0, $repetition=7"
attr measurement $0=1e0
attr network Network
attr processid 21385
attr repetition 7
attr replication #7
attr resultdir results
attr runnumber 67
attr seedset 67

vector 6595  Network.churner  inGoingSizeSig:vector  ETV
vector 6502  Network.dyn_peer[1]  lookupHopsSig:vector  ETV
vector 6503  Network.dyn_peer[1]  lookupStabilitySig:vector  ETV
vector 6504  Network.dyn_peer[1]  lookupTimeSig:vector  ETV
vector 6511  Network.dyn_peer[4]  lookupHopsSig:vector  ETV
vector 6512  Network.dyn_peer[4]  lookupStabilitySig:vector  ETV
vector 6513  Network.dyn_peer[4]  lookupTimeSig:vector  ETV
vector 6544  Network.dyn_peer[15]  lookupHopsSig:vector  ETV
vector 6545  Network.dyn_peer[15]  lookupStabilitySig:vector  ETV
vector 6546  Network.dyn_peer[15]  lookupTimeSig:vector  ETV
vector 6556  Network.dyn_peer[19]  lookupHopsSig:vector  ETV
vector 6557  Network.dyn_peer[19]  lookupStabilitySig:vector  ETV
vector 6558  Network.dyn_peer[19]  lookupTimeSig:vector  ETV
vector 6568  Network.dyn_peer[23]  lookupHopsSig:vector  ETV
vector 6569  Network.dyn_peer[23]  lookupStabilitySig:vector  ETV
vector 6570  Network.dyn_peer[23]  lookupTimeSig:vector  ETV
vector 6577  Network.dyn_peer[26]  lookupHopsSig:vector  ETV
vector 6578  Network.dyn_peer[26]  lookupStabilitySig:vector  ETV
vector 6579  Network.dyn_peer[26]  lookupTimeSig:vector  ETV
vector 6586  Network.dyn_peer[29]  lookupHopsSig:vector  ETV
vector 6587  Network.dyn_peer[29]  lookupStabilitySig:vector  ETV
vector 6588  Network.dyn_peer[29]  lookupTimeSig:vector  ETV
vector 6499  Network.dyn_peer[0]  lookupHopsSig:vector  ETV
vector 6500  Network.dyn_peer[0]  lookupStabilitySig:vector  ETV
vector 6501  Network.dyn_peer[0]  lookupTimeSig:vector  ETV
vector 6508  Network.dyn_peer[3]  lookupHopsSig:vector  ETV
vector 6509  Network.dyn_peer[3]  lookupStabilitySig:vector  ETV
vector 6510  Network.dyn_peer[3]  lookupTimeSig:vector  ETV
vector 6514  Network.dyn_peer[5]  lookupHopsSig:vector  ETV
vector 6515  Network.dyn_peer[5]  lookupStabilitySig:vector  ETV
vector 6516  Network.dyn_peer[5]  lookupTimeSig:vector  ETV
vector 6541  Network.dyn_peer[14]  lookupHopsSig:vector  ETV
vector 6542  Network.dyn_peer[14]  lookupStabilitySig:vector  ETV
vector 6543  Network.dyn_peer[14]  lookupTimeSig:vector  ETV
vector 6550  Network.dyn_peer[17]  lookupHopsSig:vector  ETV
vector 6551  Network.dyn_peer[17]  lookupStabilitySig:vector  ETV
vector 6552  Network.dyn_peer[17]  lookupTimeSig:vector  ETV
vector 6580  Network.dyn_peer[27]  lookupHopsSig:vector  ETV
vector 6581  Network.dyn_peer[27]  lookupStabilitySig:vector  ETV
vector 6582  Network.dyn_peer[27]  lookupTimeSig:vector  ETV
vector 6583  Network.dyn_peer[28]  lookupHopsSig:vector  ETV
vector 6584  Network.dyn_peer[28]  lookupStabilitySig:vector  ETV
vector 6585  Network.dyn_peer[28]  lookupTimeSig:vector  ETV
vector 6589  Network.dyn_peer[30]  lookupHopsSig:vector  ETV
vector 6590  Network.dyn_peer[30]  lookupStabilitySig:vector  ETV
vector 6591  Network.dyn_peer[30]  lookupTimeSig:vector  ETV
vector 6505  Network.dyn_peer[2]  lookupHopsSig:vector  ETV
vector 6506  Network.dyn_peer[2]  lookupStabilitySig:vector  ETV
vector 6507  Network.dyn_peer[2]  lookupTimeSig:vector  ETV
vector 6517  Network.dyn_peer[6]  lookupHopsSig:vector  ETV
vector 6518  Network.dyn_peer[6]  lookupStabilitySig:vector  ETV
vector 6519  Network.dyn_peer[6]  lookupTimeSig:vector  ETV
vector 6520  Network.dyn_peer[7]  lookupHopsSig:vector  ETV
vector 6521  Network.dyn_peer[7]  lookupStabilitySig:vector  ETV
vector 6522  Network.dyn_peer[7]  lookupTimeSig:vector  ETV
vector 6526  Network.dyn_peer[9]  lookupHopsSig:vector  ETV
vector 6527  Network.dyn_peer[9]  lookupStabilitySig:vector  ETV
vector 6528  Network.dyn_peer[9]  lookupTimeSig:vector  ETV
vector 6535  Network.dyn_peer[12]  lookupHopsSig:vector  ETV
vector 6536  Network.dyn_peer[12]  lookupStabilitySig:vector  ETV
vector 6537  Network.dyn_peer[12]  lookupTimeSig:vector  ETV
vector 6547  Network.dyn_peer[16]  lookupHopsSig:vector  ETV
vector 6548  Network.dyn_peer[16]  lookupStabilitySig:vector  ETV
vector 6549  Network.dyn_peer[16]  lookupTimeSig:vector  ETV
vector 6562  Network.dyn_peer[21]  lookupHopsSig:vector  ETV
vector 6563  Network.dyn_peer[21]  lookupStabilitySig:vector  ETV
vector 6564  Network.dyn_peer[21]  lookupTimeSig:vector  ETV
vector 6571  Network.dyn_peer[24]  lookupHopsSig:vector  ETV
vector 6572  Network.dyn_peer[24]  lookupStabilitySig:vector  ETV
vector 6573  Network.dyn_peer[24]  lookupTimeSig:vector  ETV
vector 6592  Network.dyn_peer[31]  lookupHopsSig:vector  ETV
vector 6593  Network.dyn_peer[31]  lookupStabilitySig:vector  ETV
vector 6594  Network.dyn_peer[31]  lookupTimeSig:vector  ETV
vector 6523  Network.dyn_peer[8]  lookupHopsSig:vector  ETV
vector 6524  Network.dyn_peer[8]  lookupStabilitySig:vector  ETV
vector 6525  Network.dyn_peer[8]  lookupTimeSig:vector  ETV
vector 6532  Network.dyn_peer[11]  lookupHopsSig:vector  ETV
vector 6533  Network.dyn_peer[11]  lookupStabilitySig:vector  ETV
vector 6534  Network.dyn_peer[11]  lookupTimeSig:vector  ETV
vector 6553  Network.dyn_peer[18]  lookupHopsSig:vector  ETV
vector 6554  Network.dyn_peer[18]  lookupStabilitySig:vector  ETV
vector 6555  Network.dyn_peer[18]  lookupTimeSig:vector  ETV
vector 6559  Network.dyn_peer[20]  lookupHopsSig:vector  ETV
vector 6560  Network.dyn_peer[20]  lookupStabilitySig:vector  ETV
vector 6561  Network.dyn_peer[20]  lookupTimeSig:vector  ETV
vector 6574  Network.dyn_peer[25]  lookupHopsSig:vector  ETV
vector 6575  Network.dyn_peer[25]  lookupStabilitySig:vector  ETV
vector 6576  Network.dyn_peer[25]  lookupTimeSig:vector  ETV
vector 6565  Network.dyn_peer[22]  lookupHopsSig:vector  ETV
vector 6566  Network.dyn_peer[22]  lookupStabilitySig:vector  ETV
vector 6567  Network.dyn_peer[22]  lookupTimeSig:vector  ETV
vector 6529  Network.dyn_peer[10]  lookupHopsSig:vector  ETV
vector 6530  Network.dyn_peer[10]  lookupStabilitySig:vector  ETV
vector 6531  Network.dyn_peer[10]  lookupTimeSig:vector  ETV
vector 6538  Network.dyn_peer[13]  lookupHopsSig:vector  ETV
vector 6539  Network.dyn_peer[13]  lookupStabilitySig:vector  ETV
vector 6540  Network.dyn_peer[13]  lookupTimeSig:vector  ETV
6499	151	20.101	1
6499	562	20.801	6
6499	666	20.906254129413	1
6499	711	20.92951011249	1
6499	910	21.137754357484	1
6499	1684	21.742815602948	7
6499	2351	22.242815602948	4
6499	2388	22.256968246675	2
6499	2720	22.546406502103	2
6499	3574	23.153946337355	6
6499	3809	23.353946337355	1
6499	4900	24.155046337355	11
6499	5486	24.655046337355	4
6499	5689	24.858820990325	1
6499	6773	25.749171833391	5
6499	7032	25.949171833391	1
6499	7770	26.556034301712	5
6499	9094	27.645936544274	7
6499	10412	28.648398951479	12
6499	10684	28.848398951479	1
6499	11325	29.361629405889	4
6499	11844	29.861629405889	4
6499	13403	31.28505271021	15
6499	13740	31.593354211321	2
6499	14358	31.999062300652	5
6499	14579	32.125136253592	4
6499	14756	32.30196546805	2
6499	14763	32.30706570054	9
6499	15278	32.717717447357	4
6499	16078	33.417717447357	7
6499	16530	33.825198480311	3
6499	16828	34.034471324806	1
6499	16931	34.1238623317	3
6499	17314	34.42929234257	3
6499	18098	35.12929234257	6
6499	18847	35.730431684195	6
6499	19067	35.935420554168	1
6499	19554	36.35468301095	3
6499	19651	36.450823319587	3
6499	20869	37.258360468849	9
6499	21712	37.958360468849	7
6499	21956	38.161021396793	1
6499	22318	38.470988695959	2
6499	22679	38.762322581364	6
6499	23314	39.264102018395	6
6499	23675	39.564102018395	2
6499	23943	39.765625681505	1
6499	24188	39.971646196948	2
6499	24535	40.371646196948	3
6499	25083	40.974517311885	5
6499	25509	41.381800153886	3
6499	25927	41.682900153886	4
6499	26322	41.982900153886	4
6499	27106	42.689580172545	7
6499	28292	43.597231961153	9
6499	28951	44.096528116971	11
6499	28976	44.10357187353	5
6499	29244	44.30945480424	2
6499	29596	44.60945480424	2
6499	29870	44.817866022254	2
6499	30295	45.118966022254	3
6499	31673	46.218966022254	11
6499	32880	47.248725558619	5
6499	33954	48.054123507893	8
6499	34127	48.226742290145	22
6499	34194	48.256354118348	1
6499	34933	48.766075714669	5
6499	35387	49.166075714669	3
6499	36076	49.7693955063	6
6499	36536	50.1693955063	3
6499	36901	50.476458951399	2
6499	37067	50.632289043858	4
6499	37305	50.781643726156	2
6499	37618	50.982743726156	2
6499	38332	51.623127305932	4
6499	38561	51.824227305932	2
6499	38919	52.13196511489	2
6499	40129	53.155789333432	10
6499	40400	53.368539497922	1
6499	40896	53.773147715274	3
6499	41326	54.044058181193	13
6499	41444	54.127443966576	1
6499	42221	54.732472357033	6
6499	42635	55.039127575364	2
6499	43153	55.444842710241	3
6499	43712	55.851207728821	3
6499	44252	56.261849288143	3
6499	44279	56.272608221136	0
6499	44653	56.572608221136	3
6499	45828	57.546452628511	6
6499	46024	57.746452628511	1
6499	46488	58.250722794546	4
6499	49024	60.154727876879	20
6499	49262	60.369539101527	1
6499	50943	61.99401097166	15
6499	51865	62.736894752129	3
6499	52415	63.199342377722	13
6499	52500	63.245678520302	5
6499	52516	63.274865231004	5
6499	53115	63.781469990321	4
6499	53152	63.810707961602	5
6499	53343	63.989397866694	1
6499	53505	64.132702133915	1
6499	54131	64.639269763878	5
6499	54577	65.039269763878	3
6499	55767	66.143397023586	11
6499	56135	66.448376464161	3
6499	56503	66.753378318629	2
6499	56751	66.959751903218	1
6499	56864	67.076729671532	1
6499	57828	67.877829671532	9
6499	58243	68.277829671532	3
6499	58507	68.478929671532	2
6499	59088	68.978929671532	4
6499	60215	69.888025095114	8
6499	60398	70.066277834731	2
6499	60595	70.267377834731	2
6499	60868	70.567377834731	2
6499	61852	71.392778140441	9
6499	62793	72.192778140441	9
6499	63430	72.722414432737	1
6499	63508	72.79495317141	5
6499	63666	72.926104111155	1
6499	64170	73.334001564332	3
6499	65129	74.098581472886	12
6499	65441	74.33796733231	11
6499	65522	74.393976356297	9
6499	67286	75.79547483504	16
6499	67734	76.19547483504	3
6499	69478	77.700963300342	15
6499	70201	78.301880282322	5
6499	70491	78.607592013003	2
6499	70839	78.910375698967	2
6499	71452	79.514750459104	6
6499	71511	79.56199782232	6
6499	72108	80.017987153432	4
6499	72345	80.224793815825	2
6499	72918	80.724793815825	4
6499	73146	80.934324079201	2
6499	73841	81.661169724849	5
6499	74773	82.461169724849	10
6499	75016	82.635855758141	1
6499	75043	82.646459764611	0
6499	75689	83.246459764611	5
6499	76846	84.119272420514	4
6499	77546	84.819272420514	7
6499	78338	85.52393175181	7
6499	79123	86.22869651364	8
6499	79615	86.712122597631	1
6499	79749	86.82869651364	6
6499	80103	87.118859745615	3
6499	80272	87.237773308996	3
6499	80391	87.352898619787	2
6499	80487	87.43101137752	2
6499	80651	87.53746659004	1
6499	81953	88.567514866914	1
6499	82176	88.771576314929	1
6499	82437	89.03746659004	16
6499	83138	89.541020423183	5
6499	84344	90.472690501553	6
6499	84620	90.668948524332	5
6499	84819	90.87313477616	3
6499	84872	90.890837621183	3
6499	85123	91.141020423183	16
6499	85165	91.177073687753	5
6499	85259	91.277228655935	3
6499	86691	92.483946007825	12
6499	87468	93.083946007825	6
6499	88239	93.684284916747	5
6499	88988	94.287014919958	5
6499	89215	94.494674381267	1
6499	89858	95.101617902992	5
6499	89954	95.158577370368	5
6499	90404	95.565351737553	4
6499	91428	96.465351737553	8
6499	91625	96.654909378499	5
6499	92218	97.265930344369	6
6499	93138	98.067212657923	7
6499	93387	98.276583563449	1
6499	93860	98.765307302126	3
6499	94006	98.86874316971	0
6499	94172	98.97421111741	0
6499	94529	99.282537069386	10
6499	94725	99.484091983009	1
6499	94960	99.689178665327	6
6499	95233	99.897438385707	1
6499	95305	99.975757284195	3
6499	95576	100.179331534008	2
6499	96066	100.579331534008	3
6499	96301	100.780965395857	1
6499	97006	101.395885139574	5
6499	97218	101.608512958722	6
6499	97439	101.800503255448	3
6499	97566	101.911337190095	8
6499	97586	101.917563509182	2
6499	97796	102.139692953767	1
6499	97800	102.142534491224	1
6499	98278	102.543634491224	4
6499	98596	102.843634491224	2
6499	99011	103.251457592429	3
6499	99077	103.316445152586	3
6499	99381	103.620124224295	2
6499	99443	103.684201668379	1
6499	99546	103.760910098532	4
6499	99741	103.926292312674	2
6499	99852	103.986581924787	2
6499	100027	104.13700471214	1
6499	100033	104.139088900235	1
6499	100083	104.162115419884	3
6499	100118	104.196155975334	1
6499	100314	104.3381168716	1
6499	100708	104.648869662592	3
6499	101040	104.948869662592	2
6499	101287	105.157873809217	2
6499	101766	105.557873809217	3
6499	101788	105.567860852314	0
6499	102354	106.079156844743	5
6499	103517	107.180256844743	12
6499	104374	107.880256844743	8
6499	104848	108.28433995028	3
6499	105664	109.077765474246	2
6499	105705	109.090183363156	7
6499	107098	110.199065324334	11
6499	107393	110.399065324334	1
6499	107631	110.607116675628	1
6499	108102	111.008167649767	3
6499	108310	111.217777793157	1
6499	108553	111.419318102835	4
6499	108677	111.540020883569	3
6499	109142	111.944624550717	4
6499	109351	112.144624550717	1
6499	110178	112.845724550717	7
6499	110799	113.345724550717	4
6499	111718	114.054584758638	6
6499	112087	114.364311150189	2
6499	112533	114.760816595934	9
6499	112851	114.968378902733	2
6499	113547	115.568378902733	5
6499	114031	116.012835158778	3
6499	114063	116.01925834227	0
6499	114497	116.432753688614	3
6499	114695	116.638039057282	1
6499	115144	117.046457515534	4
6499	115379	117.246457515534	1
6499	115545	117.371364840123	1
6499	115615	117.434122472462	1
6499	116355	118.035222472462	6
6499	116626	118.235904283246	1
6499	116931	118.539472976373	2
6499	117217	118.843229188969	2
6499	117611	119.153876236008	3
6499	118466	119.858847762743	6
6499	118847	120.1632631579	3
6499	119536	120.714911069601	8
6499	119581	120.768411286565	6
6499	119734	120.869511286565	1
6499	120307	121.37325752679	5
6499	120438	121.48377648928	1
6499	120906	121.88377648928	3
6499	120994	121.96401167409	1
6499	121245	122.175098162175	2
6499	121708	122.575098162175	3
6499	122548	123.281612250961	6
6499	123310	123.891224444154	7
6499	123335	123.919124367212	7
6499	123567	124.096860597691	1
6499	124450	124.731895610411	4
6499	124543	124.802769034389	7
6499	124579	124.824110715038	8
6499	127010	126.625476078639	19
6499	127229	126.825476078639	1
6499	127567	127.130461305574	2
6499	128255	127.734363364301	6
6499	129046	128.340277459466	5
6499	129342	128.573338483034	6
6499	129369	128.578622842301	0
6499	129879	129.078622842301	4
6499	130130	129.285448244817	1
6499	130197	129.341916161026	1
6499	130934	129.945523476334	6
6499	131606	130.652313592062	6
6499	132333	131.255987708676	7
6499	132455	131.36267927908	1
6499	132844	131.66267927908	2
6499	133377	132.06377927908	4
6499	134013	132.56377927908	4
6499	134403	132.870481967821	3
6499	134408	132.871665583641	3
6499	134664	133.057765910394	0
6499	134908	133.257765910394	1
6499	135162	133.458538484889	1
6499	135324	133.636866295575	1
6499	135555	133.865879771906	3
6500	151	20.101	0.875
6500	562	20.801	0.25
6500	666	20.906254129413	0.875
6500	711	20.92951011249	0.875
6500	910	21.137754357484	0.875
6500	1684	21.742815602948	0.125
6500	2351	22.242815602948	0.5
6500	2388	22.256968246675	0.75
6500	2720	22.546406502103	0.75
6500	3574	23.153946337355	0.25
6500	3809	23.353946337355	0.875
6500	4900	24.155046337355	-0.375
6500	5486	24.655046337355	0.5
6500	5689	24.858820990325	0.875
6500	6773	25.749171833391	0.375
6500	7032	25.949171833391	0.875
6500	7770	26.556034301712	0.375
6500	9094	27.645936544274	0.125
6500	10412	28.648398951479	-0.5
6500	10684	28.848398951479	0.875
6500	11325	29.361629405889	0.5
6500	11844	29.861629405889	0.5
6500	13403	31.28505271021	-0.875
6500	13740	31.593354211321	0.75
6500	14358	31.999062300652	0.375
6500	14579	32.125136253592	0.5
6500	14756	32.30196546805	0.75
6500	14763	32.30706570054	-0.125
6500	15278	32.717717447357	0.5
6500	16078	33.417717447357	0.125
6500	16530	33.825198480311	0.625
6500	16828	34.034471324806	0.875
6500	16931	34.1238623317	0.625
6500	17314	34.42929234257	0.625
6500	18098	35.12929234257	0.25
6500	18847	35.730431684195	0.25
6500	19067	35.935420554168	0.875
6500	19554	36.35468301095	0.625
6500	19651	36.450823319587	0.625
6500	20869	37.258360468849	-0.125
6500	21712	37.958360468849	0.125
6500	21956	38.161021396793	0.875
6500	22318	38.470988695959	0.75
6500	22679	38.762322581364	0.25
6500	23314	39.264102018395	0.25
6500	23675	39.564102018395	0.75
6500	23943	39.765625681505	0.875
6500	24188	39.971646196948	0.75
6500	24535	40.371646196948	0.625
6500	25083	40.974517311885	0.375
6500	25509	41.381800153886	0.625
6500	25927	41.682900153886	0.5
6500	26322	41.982900153886	0.5
6500	27106	42.689580172545	0.125
6500	28292	43.597231961153	-0.125
6500	28951	44.096528116971	-0.375
6500	28976	44.10357187353	0.375
6500	29244	44.30945480424	0.75
6500	29596	44.60945480424	0.75
6500	29870	44.817866022254	0.75
6500	30295	45.118966022254	0.625
6500	31673	46.218966022254	-0.375
6500	32880	47.248725558619	0.375
6500	33954	48.054123507893	0
6500	34127	48.226742290145	-1.75
6500	34194	48.256354118348	0.875
6500	34933	48.766075714669	0.375
6500	35387	49.166075714669	0.625
6500	36076	49.7693955063	0.25
6500	36536	50.1693955063	0.625
6500	36901	50.476458951399	0.75
6500	37067	50.632289043858	0.5
6500	37305	50.781643726156	0.75
6500	37618	50.982743726156	0.75
6500	38332	51.623127305932	0.5
6500	38561	51.824227305932	0.75
6500	38919	52.13196511489	0.75
6500	40129	53.155789333432	-0.25
6500	40400	53.368539497922	0.875
6500	40896	53.773147715274	0.625
6500	41326	54.044058181193	-0.625
6500	41444	54.127443966576	0.875
6500	42221	54.732472357033	0.25
6500	42635	55.039127575364	0.75
6500	43153	55.444842710241	0.625
6500	43712	55.851207728821	0.625
6500	44252	56.261849288143	0.625
6500	44279	56.272608221136	1
6500	44653	56.572608221136	0.625
6500	45828	57.546452628511	0.25
6500	46024	57.746452628511	0.875
6500	46488	58.250722794546	0.5
6500	49024	60.154727876879	-1.5
6500	49262	60.369539101527	0.875
6500	50943	61.99401097166	-0.875
6500	51865	62.736894752129	0.625
6500	52415	63.199342377722	-0.625
6500	52500	63.245678520302	0.375
6500	52516	63.274865231004	0.375
6500	53115	63.781469990321	0.5
6500	53152	63.810707961602	0.375
6500	53343	63.989397866694	0.875
6500	53505	64.132702133915	0.875
6500	54131	64.639269763878	0.375
6500	54577	65.039269763878	0.625
6500	55767	66.143397023586	-0.375
6500	56135	66.448376464161	0.625
6500	56503	66.753378318629	0.75
6500	56751	66.959751903218	0.875
6500	56864	67.076729671532	0.875
6500	57828	67.877829671532	-0.125
6500	58243	68.277829671532	0.625
6500	58507	68.478929671532	0.75
6500	59088	68.978929671532	0.5
6500	60215	69.888025095114	0
6500	60398	70.066277834731	0.75
6500	60595	70.267377834731	0.75
6500	60868	70.567377834731	0.75
6500	61852	71.392778140441	-0.125
6500	62793	72.192778140441	-0.125
6500	63430	72.722414432737	0.875
6500	63508	72.79495317141	0.375
6500	63666	72.926104111155	0.875
6500	64170	73.334001564332	0.625
6500	65129	74.098581472886	-0.5
6500	65441	74.33796733231	-0.375
6500	65522	74.393976356297	-0.125
6500	67286	75.79547483504	-1
6500	67734	76.19547483504	0.625
6500	69478	77.700963300342	-0.875
6500	70201	78.301880282322	0.375
6500	70491	78.607592013003	0.75
6500	70839	78.910375698967	0.75
6500	71452	79.514750459104	0.25
6500	71511	79.56199782232	0.25
6500	72108	80.017987153432	0.5
6500	72345	80.224793815825	0.75
6500	72918	80.724793815825	0.5
6500	73146	80.934324079201	0.75
6500	73841	81.661169724849	0.375
6500	74773	82.461169724849	-0.25
6500	75016	82.635855758141	0.875
6500	75043	82.646459764611	1
6500	75689	83.246459764611	0.375
6500	76846	84.119272420514	0.5
6500	77546	84.819272420514	0.125
6500	78338	85.52393175181	0.125
6500	79123	86.22869651364	0
6500	79615	86.712122597631	0.875
6500	79749	86.82869651364	0.25
6500	80103	87.118859745615	0.625
6500	80272	87.237773308996	0.625
6500	80391	87.352898619787	0.75
6500	80487	87.43101137752	0.75
6500	80651	87.53746659004	0.875
6500	81953	88.567514866914	0.875
6500	82176	88.771576314929	0.875
6500	82437	89.03746659004	-1
6500	83138	89.541020423183	0.375
6500	84344	90.472690501553	0.25
6500	84620	90.668948524332	0.375
6500	84819	90.87313477616	0.625
6500	84872	90.890837621183	0.625
6500	85123	91.141020423183	-1
6500	85165	91.177073687753	0.375
6500	85259	91.277228655935	0.625
6500	86691	92.483946007825	-0.5
6500	87468	93.083946007825	0.25
6500	88239	93.684284916747	0.375
6500	88988	94.287014919958	0.375
6500	89215	94.494674381267	0.875
6500	89858	95.101617902992	0.375
6500	89954	95.158577370368	0.375
6500	90404	95.565351737553	0.5
6500	91428	96.465351737553	0
6500	91625	96.654909378499	0.375
6500	92218	97.265930344369	0.25
6500	93138	98.067212657923	0.125
6500	93387	98.276583563449	0.875
6500	93860	98.765307302126	0.625
6500	94006	98.86874316971	1
6500	94172	98.97421111741	1
6500	94529	99.282537069386	-0.25
6500	94725	99.484091983009	0.875
6500	94960	99.689178665327	0.25
6500	95233	99.897438385707	0.875
6500	95305	99.975757284195	0.625
6500	95576	100.179331534008	0.75
6500	96066	100.579331534008	0.625
6500	96301	100.780965395857	0.875
6500	97006	101.395885139574	0.375
6500	97218	101.608512958722	0.25
6500	97439	101.800503255448	0.625
6500	97566	101.911337190095	0
6500	97586	101.917563509182	0.75
6500	97796	102.139692953767	0.875
6500	97800	102.142534491224	0.875
6500	98278	102.543634491224	0.5
6500	98596	102.843634491224	0.75
6500	99011	103.251457592429	0.625
6500	99077	103.316445152586	0.625
6500	99381	103.620124224295	0.75
6500	99443	103.684201668379	0.875
6500	99546	103.760910098532	0.5
6500	99741	103.926292312674	0.75
6500	99852	103.986581924787	0.75
6500	100027	104.13700471214	0.875
6500	100033	104.139088900235	0.875
6500	100083	104.162115419884	0.625
6500	100118	104.196155975334	0.875
6500	100314	104.3381168716	0.875
6500	100708	104.648869662592	0.625
6500	101040	104.948869662592	0.75
6500	101287	105.157873809217	0.75
6500	101766	105.557873809217	0.625
6500	101788	105.567860852314	1
6500	102354	106.079156844743	0.375
6500	103517	107.180256844743	-0.5
6500	104374	107.880256844743	0
6500	104848	108.28433995028	0.625
6500	105664	109.077765474246	0.75
6500	105705	109.090183363156	0.125
6500	107098	110.199065324334	-0.375
6500	107393	110.399065324334	0.875
6500	107631	110.607116675628	0.875
6500	108102	111.008167649767	0.625
6500	108310	111.217777793157	0.875
6500	108553	111.419318102835	0.5
6500	108677	111.540020883569	0.625
6500	109142	111.944624550717	0.5
6500	109351	112.144624550717	0.875
6500	110178	112.845724550717	0.125
6500	110799	113.345724550717	0.5
6500	111718	114.054584758638	0.25
6500	112087	114.364311150189	0.75
6500	112533	114.760816595934	-0.125
6500	112851	114.968378902733	0.75
6500	113547	115.568378902733	0.375
6500	114031	116.012835158778	0.625
6500	114063	116.01925834227	1
6500	114497	116.432753688614	0.625
6500	114695	116.638039057282	0.875
6500	115144	117.046457515534	0.5
6500	115379	117.246457515534	0.875
6500	115545	117.371364840123	0.875
6500	115615	117.434122472462	0.875
6500	116355	118.035222472462	0.25
6500	116626	118.235904283246	0.875
6500	116931	118.539472976373	0.75
6500	117217	118.843229188969	0.75
6500	117611	119.153876236008	0.625
6500	118466	119.858847762743	0.25
6500	118847	120.1632631579	0.625
6500	119536	120.714911069601	0
6500	119581	120.768411286565	0.25
6500	119734	120.869511286565	0.875
6500	120307	121.37325752679	0.375
6500	120438	121.48377648928	0.875
6500	120906	121.88377648928	0.625
6500	120994	121.96401167409	0.875
6500	121245	122.175098162175	0.75
6500	121708	122.575098162175	0.625
6500	122548	123.281612250961	0.25
6500	123310	123.891224444154	0.125
6500	123335	123.919124367212	0.125
6500	123567	124.096860597691	0.875
6500	124450	124.731895610411	0.5
6500	124543	124.802769034389	0.125
6500	124579	124.824110715038	0
6500	127010	126.625476078639	-1.375
6500	127229	126.825476078639	0.875
6500	127567	127.130461305574	0.75
6500	128255	127.734363364301	0.25
6500	129046	128.340277459466	0.375
6500	129342	128.573338483034	0.25
6500	129369	128.578622842301	1
6500	129879	129.078622842301	0.5
6500	130130	129.285448244817	0.875
6500	130197	129.341916161026	0.875
6500	130934	129.945523476334	0.25
6500	131606	130.652313592062	0.25
6500	132333	131.255987708676	0.125
6500	132455	131.36267927908	0.875
6500	132844	131.66267927908	0.75
6500	133377	132.06377927908	0.5
6500	134013	132.56377927908	0.5
6500	134403	132.870481967821	0.625
6500	134408	132.871665583641	0.625
6500	134664	133.057765910394	1
6500	134908	133.257765910394	0.875
6500	135162	133.458538484889	0.875
6500	135324	133.636866295575	0.875
6500	135555	133.865879771906	0.625
6501	151	20.101	0.1
6501	562	20.801	0.7
6501	666	20.906254129413	0.1
6501	711	20.92951011249	0.1
6501	910	21.137754357484	0.2
6501	1684	21.742815602948	0.6
6501	2351	22.242815602948	0.5
6501	2388	22.256968246675	0.3
6501	2720	22.546406502103	0.3
6501	3574	23.153946337355	0.6
6501	3809	23.353946337355	0.2
6501	4900	24.155046337355	0.8
6501	5486	24.655046337355	0.5
6501	5689	24.858820990325	0.2
6501	6773	25.749171833391	0.5
6501	7032	25.949171833391	0.2
6501	7770	26.556034301712	0.6
6501	9094	27.645936544274	0.8
6501	10412	28.648398951479	1
6501	10684	28.848398951479	0.2
6501	11325	29.361629405889	0.4
6501	11844	29.861629405889	0.5
6501	13403	31.28505271021	1.4
6501	13740	31.593354211321	0.3
6501	14358	31.999062300652	0.4
6501	14579	32.125136253592	0.5
6501	14756	32.30196546805	0.3
6501	14763	32.30706570054	0.9
6501	15278	32.717717447357	0.4
6501	16078	33.417717447357	0.7
6501	16530	33.825198480311	0.4
6501	16828	34.034471324806	0.2
6501	16931	34.1238623317	0.4
6501	17314	34.42929234257	0.3
6501	18098	35.12929234257	0.7
6501	18847	35.730431684195	0.6
6501	19067	35.935420554168	0.2
6501	19554	36.35468301095	0.4
6501	19651	36.450823319587	0.4
6501	20869	37.258360468849	0.8
6501	21712	37.958360468849	0.7
6501	21956	38.161021396793	0.2
6501	22318	38.470988695959	0.3
6501	22679	38.762322581364	0.7
6501	23314	39.264102018395	0.5
6501	23675	39.564102018395	0.3
6501	23943	39.765625681505	0.2
6501	24188	39.971646196948	0.2
6501	24535	40.371646196948	0.4
6501	25083	40.974517311885	0.6
6501	25509	41.381800153886	0.4
6501	25927	41.682900153886	0.3
6501	26322	41.982900153886	0.3
6501	27106	42.689580172545	0.7
6501	28292	43.597231961153	0.9
6501	28951	44.096528116971	1
6501	28976	44.10357187353	0.5
6501	29244	44.30945480424	0.2
6501	29596	44.60945480424	0.3
6501	29870	44.817866022254	0.2
6501	30295	45.118966022254	0.3
6501	31673	46.218966022254	1.1
6501	32880	47.248725558619	0.6
6501	33954	48.054123507893	0.8
6501	34127	48.226742290145	2
6501	34194	48.256354118348	0.2
6501	34933	48.766075714669	0.5
6501	35387	49.166075714669	0.4
6501	36076	49.7693955063	0.6
6501	36536	50.1693955063	0.4
6501	36901	50.476458951399	0.3
6501	37067	50.632289043858	0.5
6501	37305	50.781643726156	0.3
6501	37618	50.982743726156	0.2
6501	38332	51.623127305932	0.4
6501	38561	51.824227305932	0.2
6501	38919	52.13196511489	0.3
6501	40129	53.155789333432	1
6501	40400	53.368539497922	0.2
6501	40896	53.773147715274	0.4
6501	41326	54.044058181193	1.2
6501	41444	54.127443966576	0.2
6501	42221	54.732472357033	0.6
6501	42635	55.039127575364	0.3
6501	43153	55.444842710241	0.4
6501	43712	55.851207728821	0.4
6501	44252	56.261849288143	0.4
6501	44279	56.272608221136	0
6501	44653	56.572608221136	0.3
6501	45828	57.546452628511	0.6
6501	46024	57.746452628511	0.2
6501	46488	58.250722794546	0.5
6501	49024	60.154727876879	1.9
6501	49262	60.369539101527	0.2
6501	50943	61.99401097166	1.6
6501	51865	62.736894752129	0.4
6501	52415	63.199342377722	1.2
6501	52500	63.245678520302	0.5
6501	52516	63.274865231004	0.5
6501	53115	63.781469990321	0.5
6501	53152	63.810707961602	0.6
6501	53343	63.989397866694	0.2
6501	53505	64.132702133915	0.2
6501	54131	64.639269763878	0.5
6501	54577	65.039269763878	0.4
6501	55767	66.143397023586	1.1
6501	56135	66.448376464161	0.3
6501	56503	66.753378318629	0.3
6501	56751	66.959751903218	0.2
6501	56864	67.076729671532	0.2
6501	57828	67.877829671532	0.8
6501	58243	68.277829671532	0.4
6501	58507	68.478929671532	0.2
6501	59088	68.978929671532	0.5
6501	60215	69.888025095114	0.9
6501	60398	70.066277834731	0.3
6501	60595	70.267377834731	0.2
6501	60868	70.567377834731	0.3
6501	61852	71.392778140441	0.8
6501	62793	72.192778140441	0.8
6501	63430	72.722414432737	0.2
6501	63508	72.79495317141	0.6
6501	63666	72.926104111155	0.2
6501	64170	73.334001564332	0.4
6501	65129	74.098581472886	1.3
6501	65441	74.33796733231	1
6501	65522	74.393976356297	1
6501	67286	75.79547483504	1.4
6501	67734	76.19547483504	0.4
6501	69478	77.700963300342	1.5
6501	70201	78.301880282322	0.6
6501	70491	78.607592013003	0.3
6501	70839	78.910375698967	0.3
6501	71452	79.514750459104	0.6
6501	71511	79.56199782232	0.6
6501	72108	80.017987153432	0.5
6501	72345	80.224793815825	0.2
6501	72918	80.724793815825	0.5
6501	73146	80.934324079201	0.2
6501	73841	81.661169724849	0.5
6501	74773	82.461169724849	0.8
6501	75016	82.635855758141	0.2
6501	75043	82.646459764611	0
6501	75689	83.246459764611	0.6
6501	76846	84.119272420514	0.4
6501	77546	84.819272420514	0.7
6501	78338	85.52393175181	0.7
6501	79123	86.22869651364	0.7
6501	79615	86.712122597631	0.2
6501	79749	86.82869651364	0.6
6501	80103	87.118859745615	0.4
6501	80272	87.237773308996	0.4
6501	80391	87.352898619787	0.3
6501	80487	87.43101137752	0.3
6501	80651	87.53746659004	0.1
6501	81953	88.567514866914	0.2
6501	82176	88.771576314929	0.2
6501	82437	89.03746659004	1.5
6501	83138	89.541020423183	0.5
6501	84344	90.472690501553	0.7
6501	84620	90.668948524332	0.6
6501	84819	90.87313477616	0.4
6501	84872	90.890837621183	0.4
6501	85123	91.141020423183	1.6
6501	85165	91.177073687753	0.5
6501	85259	91.277228655935	0.4
6501	86691	92.483946007825	1.2
6501	87468	93.083946007825	0.6
6501	88239	93.684284916747	0.6
6501	88988	94.287014919958	0.6
6501	89215	94.494674381267	0.2
6501	89858	95.101617902992	0.6
6501	89954	95.158577370368	0.6
6501	90404	95.565351737553	0.4
6501	91428	96.465351737553	0.9