version 2
run Stability-48-20130528-00:53:08-21385
attr configname Stability
attr datetime 20130528-00:53:08
attr experiment Stability
attr inifile omnetpp.ini
attr iterationvars $0=1e2
attr iterationvars2 "$0=1e2, $repetition=8"
attr measurement $0=1e2
attr network Network
attr processid 21385
attr repetition 8
attr replication #8
attr resultdir results
attr runnumber 48
attr seedset 48

vector 4752  Network.churner  inGoingSizeSig:vector  ETV
vector 4656  Network.dyn_peer[0]  lookupHopsSig:vector  ETV
vector 4657  Network.dyn_peer[0]  lookupStabilitySig:vector  ETV
vector 4658  Network.dyn_peer[0]  lookupTimeSig:vector  ETV
vector 4659  Network.dyn_peer[1]  lookupHopsSig:vector  ETV
vector 4660  Network.dyn_peer[1]  lookupStabilitySig:vector  ETV
vector 4661  Network.dyn_peer[1]  lookupTimeSig:vector  ETV
vector 4662  Network.dyn_peer[2]  lookupHopsSig:vector  ETV
vector 4663  Network.dyn_peer[2]  lookupStabilitySig:vector  ETV
vector 4664  Network.dyn_peer[2]  lookupTimeSig:vector  ETV
vector 4665  Network.dyn_peer[3]  lookupHopsSig:vector  ETV
vector 4666  Network.dyn_peer[3]  lookupStabilitySig:vector  ETV
vector 4667  Network.dyn_peer[3]  lookupTimeSig:vector  ETV
vector 4668  Network.dyn_peer[4]  lookupHopsSig:vector  ETV
vector 4669  Network.dyn_peer[4]  lookupStabilitySig:vector  ETV
vector 4670  Network.dyn_peer[4]  lookupTimeSig:vector  ETV
vector 4671  Network.dyn_peer[5]  lookupHopsSig:vector  ETV
vector 4672  Network.dyn_peer[5]  lookupStabilitySig:vector  ETV
vector 4673  Network.dyn_peer[5]  lookupTimeSig:vector  ETV
vector 4674  Network.dyn_peer[6]  lookupHopsSig:vector  ETV
vector 4675  Network.dyn_peer[6]  lookupStabilitySig:vector  ETV
vector 4676  Network.dyn_peer[6]  lookupTimeSig:vector  ETV
vector 4677  Network.dyn_peer[7]  lookupHopsSig:vector  ETV
vector 4678  Network.dyn_peer[7]  lookupStabilitySig:vector  ETV
vector 4679  Network.dyn_peer[7]  lookupTimeSig:vector  ETV
vector 4680  Network.dyn_peer[8]  lookupHopsSig:vector  ETV
vector 4681  Network.dyn_peer[8]  lookupStabilitySig:vector  ETV
vector 4682  Network.dyn_peer[8]  lookupTimeSig:vector  ETV
vector 4683  Network.dyn_peer[9]  lookupHopsSig:vector  ETV
vector 4684  Network.dyn_peer[9]  lookupStabilitySig:vector  ETV
vector 4685  Network.dyn_peer[9]  lookupTimeSig:vector  ETV
vector 4686  Network.dyn_peer[10]  lookupHopsSig:vector  ETV
vector 4687  Network.dyn_peer[10]  lookupStabilitySig:vector  ETV
vector 4688  Network.dyn_peer[10]  lookupTimeSig:vector  ETV
vector 4692  Network.dyn_peer[12]  lookupHopsSig:vector  ETV
vector 4693  Network.dyn_peer[12]  lookupStabilitySig:vector  ETV
vector 4694  Network.dyn_peer[12]  lookupTimeSig:vector  ETV
vector 4689  Network.dyn_peer[11]  lookupHopsSig:vector  ETV
vector 4690  Network.dyn_peer[11]  lookupStabilitySig:vector  ETV
vector 4691  Network.dyn_peer[11]  lookupTimeSig:vector  ETV
vector 4695  Network.dyn_peer[13]  lookupHopsSig:vector  ETV
vector 4696  Network.dyn_peer[13]  lookupStabilitySig:vector  ETV
vector 4697  Network.dyn_peer[13]  lookupTimeSig:vector  ETV
vector 4698  Network.dyn_peer[14]  lookupHopsSig:vector  ETV
vector 4699  Network.dyn_peer[14]  lookupStabilitySig:vector  ETV
vector 4700  Network.dyn_peer[14]  lookupTimeSig:vector  ETV
vector 4701  Network.dyn_peer[15]  lookupHopsSig:vector  ETV
vector 4702  Network.dyn_peer[15]  lookupStabilitySig:vector  ETV
vector 4703  Network.dyn_peer[15]  lookupTimeSig:vector  ETV
vector 4704  Network.dyn_peer[16]  lookupHopsSig:vector  ETV
vector 4705  Network.dyn_peer[16]  lookupStabilitySig:vector  ETV
vector 4706  Network.dyn_peer[16]  lookupTimeSig:vector  ETV
vector 4710  Network.dyn_peer[18]  lookupHopsSig:vector  ETV
vector 4711  Network.dyn_peer[18]  lookupStabilitySig:vector  ETV
vector 4712  Network.dyn_peer[18]  lookupTimeSig:vector  ETV
vector 4707  Network.dyn_peer[17]  lookupHopsSig:vector  ETV
vector 4708  Network.dyn_peer[17]  lookupStabilitySig:vector  ETV
vector 4709  Network.dyn_peer[17]  lookupTimeSig:vector  ETV
vector 4713  Network.dyn_peer[19]  lookupHopsSig:vector  ETV
vector 4714  Network.dyn_peer[19]  lookupStabilitySig:vector  ETV
vector 4715  Network.dyn_peer[19]  lookupTimeSig:vector  ETV
vector 4716  Network.dyn_peer[20]  lookupHopsSig:vector  ETV
vector 4717  Network.dyn_peer[20]  lookupStabilitySig:vector  ETV
vector 4718  Network.dyn_peer[20]  lookupTimeSig:vector  ETV
vector 4719  Network.dyn_peer[21]  lookupHopsSig:vector  ETV
vector 4720  Network.dyn_peer[21]  lookupStabilitySig:vector  ETV
vector 4721  Network.dyn_peer[21]  lookupTimeSig:vector  ETV
vector 4722  Network.dyn_peer[22]  lookupHopsSig:vector  ETV
vector 4723  Network.dyn_peer[22]  lookupStabilitySig:vector  ETV
vector 4724  Network.dyn_peer[22]  lookupTimeSig:vector  ETV
vector 4725  Network.dyn_peer[23]  lookupHopsSig:vector  ETV
vector 4726  Network.dyn_peer[23]  lookupStabilitySig:vector  ETV
vector 4727  Network.dyn_peer[23]  lookupTimeSig:vector  ETV
vector 4734  Network.dyn_peer[26]  lookupHopsSig:vector  ETV
vector 4735  Network.dyn_peer[26]  lookupStabilitySig:vector  ETV
vector 4736  Network.dyn_peer[26]  lookupTimeSig:vector  ETV
vector 4728  Network.dyn_peer[24]  lookupHopsSig:vector  ETV
vector 4729  Network.dyn_peer[24]  lookupStabilitySig:vector  ETV
vector 4730  Network.dyn_peer[24]  lookupTimeSig:vector  ETV
vector 4731  Network.dyn_peer[25]  lookupHopsSig:vector  ETV
vector 4732  Network.dyn_peer[25]  lookupStabilitySig:vector  ETV
vector 4733  Network.dyn_peer[25]  lookupTimeSig:vector  ETV
vector 4743  Network.dyn_peer[29]  lookupHopsSig:vector  ETV
vector 4744  Network.dyn_peer[29]  lookupStabilitySig:vector  ETV
vector 4745  Network.dyn_peer[29]  lookupTimeSig:vector  ETV
vector 4746  Network.dyn_peer[30]  lookupHopsSig:vector  ETV
vector 4747  Network.dyn_peer[30]  lookupStabilitySig:vector  ETV
vector 4748  Network.dyn_peer[30]  lookupTimeSig:vector  ETV
vector 4737  Network.dyn_peer[27]  lookupHopsSig:vector  ETV
vector 4738  Network.dyn_peer[27]  lookupStabilitySig:vector  ETV
vector 4739  Network.dyn_peer[27]  lookupTimeSig:vector  ETV
vector 4740  Network.dyn_peer[28]  lookupHopsSig:vector  ETV
vector 4741  Network.dyn_peer[28]  lookupStabilitySig:vector  ETV
vector 4742  Network.dyn_peer[28]  lookupTimeSig:vector  ETV
vector 4749  Network.dyn_peer[31]  lookupHopsSig:vector  ETV
vector 4750  Network.dyn_peer[31]  lookupStabilitySig:vector  ETV
vector 4751  Network.dyn_peer[31]  lookupTimeSig:vector  ETV
4656	37	20.3	2
4656	90	20.712694174309	3
4656	181	21.113273144936	3
4656	239	21.348110416685	1
4656	1201	23.4	0
4656	1334	23.7	2
4656	1419	23.831763824084	3
4656	1530	24.105161279297	3
4656	2557	26.2	1
4656	2771	26.7	5
4656	2800	26.718505481808	3
4656	2888	26.913271949111	1
4656	2895	26.920355232565	2
4656	2935	27.018883114304	1
4656	3094	27.421358607336	5
4656	3096	27.422056719998	3
4656	3101	27.427422928207	5
4656	4223	29.8	3
4656	4513	30.4	5
4656	4644	30.701943699151	2
4656	4810	31.0107048406	2
4656	5935	33.3	4
4656	6194	33.8	4
4656	6335	34.106065984845	2
4656	7391	36.1	2
4656	7527	36.5	3
4656	7751	37.003383286988	4
4656	7932	37.405643535328	7
4656	8136	37.809038788553	8
4656	9192	39.6	2
4656	9389	40	3
4656	9507	40.207003856303	1
4656	9804	40.721855792744	5
4656	9831	40.754825190301	3
4656	11136	43.4	4
4656	11244	43.7	2
4656	11527	44.405795457109	6
4656	12516	46.5	1
4656	12758	47	5
4656	12873	47.213312896777	2
4656	12997	47.43179942086	1
4656	14058	49.6	4
4656	14204	49.9	2
4656	14332	50.20849082261	2
4656	14338	50.216337834705	2
4656	14424	50.425472828993	1
4656	14500	50.612026554147	3
4656	15572	52.8	4
4656	15680	53	1
4656	15969	53.628541741376	5
4656	16056	53.843595236281	1
4656	17041	56.2	2
4656	17217	56.7	4
4656	18067	58.4	1
4656	18293	58.804465704266	3
4656	18402	58.955500768663	3
4656	18486	59.106836447975	3
4656	18530	59.215558294987	3
4656	18626	59.34276486403	3
4656	19578	61.3	0
4656	20033	62.120020808322	2
4656	20231	62.5	13
4656	20249	62.514955422502	2
4656	21280	64.7	2
4656	21463	65.1	3
4656	21623	65.40759911946	2
4656	21683	65.609147320126	1
4656	22849	68.1	7
4656	23008	68.4	3
4656	23158	68.706045019023	2
4656	23296	69.012601817965	3
4656	24462	71.5	4
4656	24644	71.9	3
4656	24854	72.402564596529	4
4656	25206	73.008476886103	5
4656	25333	73.208515985662	1
4656	26280	74.9	1
4656	26567	75.5	5
4656	26653	75.704903352607	1
4656	26809	76.013024203553	2
4656	27996	78.6	4
4656	28166	79.1	4
4656	29116	81.3	2
4656	29200	81.500122096382	1
4656	29514	82.209695972748	7
4656	29579	82.36324951504	6
4656	30557	84.3	1
4656	30634	84.5	1
4656	30782	84.914648537761	3
4656	31794	86.9	2
4656	31907	87.202320567895	3
4656	31970	87.413325484484	1
4656	32184	87.915092179228	4
4656	32191	87.920793845072	4
4656	33126	90	1
4656	33379	90.5	5
4656	34501	93.2	4
4656	34741	93.8	6
4656	34806	93.91011168175	2
4656	34838	94.000938661994	1
4656	35843	96.3	2
4656	36164	97.001510766865	8
4656	36217	97.103499974912	1
4656	36432	97.512273604826	4
4656	37381	99.5	1
4656	37457	99.7	1
4656	37658	100.016565167677	2
4656	37693	100.104099398263	2
4656	38567	101.9	1
4656	38807	102.4	4
4656	39140	103.038178080092	4
4656	39267	103.342124003935	2
4656	39361	103.5025599387	12
4656	40315	105.6	1
4656	40472	105.9	2
4656	40795	106.405629171966	5
4656	40806	106.418583174501	5
4656	41819	108.6	2
4656	42064	109.1	4
4656	42240	109.400694441781	3
4656	42420	109.80659604523	3
4656	43507	112.1	3
4656	43620	112.304445919538	1
4656	43774	112.706246670916	3
4656	43854	112.917785816125	1
4656	43888	113.022765784897	3
4656	43997	113.219755762789	2
4656	44001	113.224390686503	1
4656	45043	115.4	4
4656	45278	116	5
4656	45359	116.213280138245	1
4656	45506	116.513508402881	2
4656	45692	116.814405369079	2
4656	46710	118.5	2
4656	46941	118.909303367673	3
4656	47795	120.9	1
4656	48152	121.60422486657	6
4656	48261	121.805664081801	1
4656	48459	122.208381358554	5
4656	48481	122.215412125002	4
4656	48570	122.40980364543	1
4656	48573	122.411069176698	4
4656	49435	124.4	1
4656	49629	124.7	2
4656	49805	125.004258015726	2
4656	49922	125.20813379175	2
4656	50048	125.522990050407	2
4656	50065	125.60570155491	5
4656	50069	125.607960713829	5
4656	51012	127.8	1
4656	51139	128.1	2
4656	51368	128.608993072456	4
4656	51373	128.619038470504	3
4656	51460	128.814378502352	1
4656	52461	131	3
4656	52647	131.4	3
4656	52846	131.707318563902	1
4656	52890	131.804634211766	3
4656	52896	131.806044648485	3
4656	53890	133.9	3
4656	54025	134.2	3
4656	54168	134.50010322994	2
4656	55273	136.8	4
4656	55407	137.1	2
4656	55610	137.602754946721	4
4656	55748	137.904900783553	2
4656	55752	137.906976214253	2
4656	56780	140.2	2
4656	56954	140.605919315847	3
4656	57170	141.006403530889	3
4656	57188	141.010362353249	3
4656	57326	141.314778904241	2
4656	57330	141.318325261747	2
4656	57492	141.63256125889	2
4656	57494	141.632793380107	2
4656	57502	141.660474799789	2
4656	58551	143.9	5
4656	58757	144.4	5
4656	58944	144.802834286636	4
4656	59912	146.9	3
4656	60179	147.408419340555	4
4656	60457	148.015882549242	6
4656	60562	148.218832398874	1
4656	60651	148.414702579046	1
4656	60676	148.427414863854	1
4656	60765	148.617773553686	1
4656	61985	151.1	6
4656	62105	151.4	2
4656	62380	151.912697367563	4
4656	62414	152.030091646285	2
4656	63559	154.5	4
4656	63757	155	4
4656	63901	155.406599880407	3
4656	63904	155.407432028329	3
4656	63989	155.606988065327	1
4656	65170	158.4	8
4656	65258	158.6	1
4656	65606	159.405066610697	8
4656	65614	159.408965096483	8
4656	65807	159.814520440854	3
4656	65826	159.81953101708	3
4656	67079	162.1	5
4656	67212	162.4	2
4656	68410	164.8	2
4656	68608	165.306413339301	4
4656	68721	165.515474108933	1
4656	68800	165.715343406383	1
4656	69942	168.2	5
4656	70124	168.6	3
4656	70230	168.803297500107	1
4656	70409	169.112481210729	2
4656	70470	169.220404169548	2
4656	71529	171.5	2
4656	71729	172	4
4656	71840	172.301024176802	2
4656	71930	172.504187939416	1
4656	72020	172.704980497353	1
4656	73044	174.7	2
4656	73205	174.909506986474	1
4656	74559	177.6	5
4656	74767	178	4
4656	75871	180.2	2
4656	75969	180.4	1
4656	76108	180.604760937222	1
4656	76181	180.80831726349	1
4656	77379	183.1	4
4656	77475	183.3	1
4656	77650	183.708315729808	3
4656	77655	183.709658972595	3
4656	77794	184.018695655852	2
4656	78722	186.1	2
4656	78981	186.6	4
4656	79091	186.822677709759	1
4656	79245	187.128971115686	2
4656	80273	189.4	2
4656	80432	189.731250133795	3
4656	80626	190.149699279178	3
4656	80711	190.384655503743	1
4656	81713	192.7	2
4656	81963	193.2	5
4656	82053	193.407777742368	1
4656	82061	193.429305008474	1
4656	82188	193.734634963157	3
4656	82190	193.737769668296	3
4656	82221	193.809354407088	3
4656	82232	193.842787368567	1
4656	82235	193.845029185285	1
4656	82306	194.001045821986	1
4656	82355	194.104525707654	1
4656	83343	196.2	0
4656	83453	196.5	2
4656	83667	196.905637352124	3
4656	83770	197.110103016488	1
4656	83775	197.112650429957	1
4656	83914	197.31285880745	1
4656	83926	197.31427360932	1
4656	83942	197.328632381211	1
4656	84922	199.5	1
4656	85061	199.8	2
4656	85301	200.309931334184	4
4656	86322	202.5	2
4656	86579	203.1	5
4656	87541	205.3	3
4656	87881	206	6
4656	87987	206.203371252152	1
4656	88141	206.511442414293	2
4656	89247	208.7	4
4656	89499	209.2	5
4656	89728	209.662305155915	5
4656	89893	210.062894908736	3
4656	90244	210.672643934664	5
4656	90269	210.706505817659	18
4656	91384	213.2	4
4656	91538	213.5	2
4656	91648	213.717244250245	1
4656	91676	213.800256276107	3
4656	92707	216	2
4656	92841	216.3	2
4656	93458	217.207049032617	10
4656	93463	217.211486182072	9
4656	93635	217.512792365369	2
4656	93637	217.512902515594	2
4656	94645	219.5	1
4656	94766	219.7	1
4656	94834	219.811267912785	1
4656	95751	222.1	1
4656	95875	222.3	1
4656	95998	222.514890477745	1
4656	97101	224.7	3
4656	97169	224.9	1
4656	97259	225.210167283161	2
4656	97326	225.416371523017	1
4656	97383	225.622322332894	1
4657	37	20.3	0.75
4657	90	20.712694174309	0.625
4657	181	21.113273144936	0.625
4657	239	21.348110416685	0.875
4657	1201	23.4	1
4657	1334	23.7	0.75
4657	1419	23.831763824084	0.625
4657	1530	24.105161279297	0.625
4657	2557	26.2	0.875
4657	2771	26.7	0.375
4657	2800	26.718505481808	0.625
4657	2888	26.913271949111	0.875
4657	2895	26.920355232565	0.75
4657	2935	27.018883114304	0.875
4657	3094	27.421358607336	0.375
4657	3096	27.422056719998	0.625
4657	3101	27.427422928207	0.375
4657	4223	29.8	0.625
4657	4513	30.4	0.375
4657	4644	30.701943699151	0.75
4657	4810	31.0107048406	0.75
4657	5935	33.3	0.5
4657	6194	33.8	0.5
4657	6335	34.106065984845	0.75
4657	7391	36.1	0.75
4657	7527	36.5	0.625
4657	7751	37.003383286988	0.5
4657	7932	37.405643535328	0.125
4657	8136	37.809038788553	0
4657	9192	39.6	0.75
4657	9389	40	0.625
4657	9507	40.207003856303	0.875
4657	9804	40.721855792744	0.375
4657	9831	40.754825190301	0.625
4657	11136	43.4	0.5
4657	11244	43.7	0.75
4657	11527	44.405795457109	0.25
4657	12516	46.5	0.875
4657	12758	47	0.375
4657	12873	47.213312896777	0.75
4657	12997	47.43179942086	0.875
4657	14058	49.6	0.5
4657	14204	49.9	0.75
4657	14332	50.20849082261	0.75
4657	14338	50.216337834705	0.75
4657	14424	50.425472828993	0.875
4657	14500	50.612026554147	0.625
4657	15572	52.8	0.5
4657	15680	53	0.875
4657	15969	53.628541741376	0.375
4657	16056	53.843595236281	0.875
4657	17041	56.2	0.75
4657	17217	56.7	0.5
4657	18067	58.4	0.875
4657	18293	58.804465704266	0.625
4657	18402	58.955500768663	0.625
4657	18486	59.106836447975	0.625
4657	18530	59.215558294987	0.625
4657	18626	59.34276486403	0.625
4657	19578	61.3	1
4657	20033	62.120020808322	0.75
4657	20231	62.5	-0.625
4657	20249	62.514955422502	0.75
4657	21280	64.7	0.75
4657	21463	65.1	0.625
4657	21623	65.40759911946	0.75
4657	21683	65.609147320126	0.875
4657	22849	68.1	0.125
4657	23008	68.4	0.625
4657	23158	68.706045019023	0.75
4657	23296	69.012601817965	0.625
4657	24462	71.5	0.5
4657	24644	71.9	0.625
4657	24854	72.402564596529	0.5
4657	25206	73.008476886103	0.375
4657	25333	73.208515985662	0.875
4657	26280	74.9	0.875
4657	26567	75.5	0.375
4657	26653	75.704903352607	0.875
4657	26809	76.013024203553	0.75
4657	27996	78.6	0.5
4657	28166	79.1	0.5
4657	29116	81.3	0.75
4657	29200	81.500122096382	0.875
4657	29514	82.209695972748	0.125
4657	29579	82.36324951504	0.25
4657	30557	84.3	0.875
4657	30634	84.5	0.875
4657	30782	84.914648537761	0.625
4657	31794	86.9	0.75
4657	31907	87.202320567895	0.625
4657	31970	87.413325484484	0.875
4657	32184	87.915092179228	0.5
4657	32191	87.920793845072	0.5
4657	33126	90	0.875
4657	33379	90.5	0.375
4657	34501	93.2	0.5
4657	34741	93.8	0.25
4657	34806	93.91011168175	0.75
4657	34838	94.000938661994	0.875
4657	35843	96.3	0.75
4657	36164	97.001510766865	0
4657	36217	97.103499974912	0.875
4657	36432	97.512273604826	0.5
4657	37381	99.5	0.875
4657	37457	99.7	0.875
4657	37658	100.016565167677	0.75
4657	37693	100.104099398263	0.75
4657	38567	101.9	0.875
4657	38807	102.4	0.5
4657	39140	103.038178080092	0.5
4657	39267	103.342124003935	0.75
4657	39361	103.5025599387	-0.5
4657	40315	105.6	0.875
4657	40472	105.9	0.75
4657	40795	106.405629171966	0.375
4657	40806	106.418583174501	0.375
4657	41819	108.6	0.75
4657	42064	109.1	0.5
4657	42240	109.400694441781	0.625
4657	42420	109.80659604523	0.625
4657	43507	112.1	0.625
4657	43620	112.304445919538	0.875
4657	43774	112.706246670916	0.625
4657	43854	112.917785816125	0.875
4657	43888	113.022765784897	0.625
4657	43997	113.219755762789	0.75
4657	44001	113.224390686503	0.875
4657	45043	115.4	0.5
4657	45278	116	0.375
4657	45359	116.213280138245	0.875
4657	45506	116.513508402881	0.75
4657	45692	116.814405369079	0.75
4657	46710	118.5	0.75
4657	46941	118.909303367673	0.625
4657	47795	120.9	0.875
4657	48152	121.60422486657	0.25
4657	48261	121.805664081801	0.875
4657	48459	122.208381358554	0.375
4657	48481	122.215412125002	0.5
4657	48570	122.40980364543	0.875
4657	48573	122.411069176698	0.5
4657	49435	124.4	0.875
4657	49629	124.7	0.75
4657	49805	125.004258015726	0.75
4657	49922	125.20813379175	0.75
4657	50048	125.522990050407	0.75
4657	50065	125.60570155491	0.375
4657	50069	125.607960713829	0.375
4657	51012	127.8	0.875
4657	51139	128.1	0.75
4657	51368	128.608993072456	0.5
4657	51373	128.619038470504	0.625
4657	51460	128.814378502352	0.875
4657	52461	131	0.625
4657	52647	131.4	0.625
4657	52846	131.707318563902	0.875
4657	52890	131.804634211766	0.625
4657	52896	131.806044648485	0.625
4657	53890	133.9	0.625
4657	54025	134.2	0.625
4657	54168	134.50010322994	0.75
4657	55273	136.8	0.5
4657	55407	137.1	0.75
4657	55610	137.602754946721	0.5
4657	55748	137.904900783553	0.75
4657	55752	137.906976214253	0.75
4657	56780	140.2	0.75
4657	56954	140.605919315847	0.625
4657	57170	141.006403530889	0.625
4657	57188	141.010362353249	0.625
4657	57326	141.314778904241	0.75
4657	57330	141.318325261747	0.75
4657	57492	141.63256125889	0.75
4657	57494	141.632793380107	0.75
4657	57502	141.660474799789	0.75
4657	58551	143.9	0.375
4657	58757	144.4	0.375
4657	58944	144.802834286636	0.5
4657	59912	146.9	0.625
4657	60179	147.408419340555	0.5
4657	60457	148.015882549242	0.25
4657	60562	148.218832398874	0.875
4657	60651	148.414702579046	0.875
4657	60676	148.427414863854	0.875
4657	60765	148.617773553686	0.875
4657	61985	151.1	0.25
4657	62105	151.4	0.75
4657	62380	151.912697367563	0.5
4657	62414	152.030091646285	0.75
4657	63559	154.5	0.5
4657	63757	155	0.5
4657	63901	155.406599880407	0.625
4657	63904	155.407432028329	0.625
4657	63989	155.606988065327	0.875
4657	65170	158.4	0
4657	65258	158.6	0.875
4657	65606	159.405066610697	0
4657	65614	159.408965096483	0
4657	65807	159.814520440854	0.625
4657	65826	159.81953101708	0.625
4657	67079	162.1	0.375
4657	67212	162.4	0.75
4657	68410	164.8	0.75
4657	68608	165.306413339301	0.5
4657	68721	165.515474108933	0.875
4657	68800	165.715343406383	0.875
4657	69942	168.2	0.375
4657	70124	168.6	0.625
4657	70230	168.803297500107	0.875
4657	70409	169.112481210729	0.75
4657	70470	169.220404169548	0.75
4657	71529	171.5	0.75
4657	71729	172	0.5
4657	71840	172.301024176802	0.75
4657	71930	172.504187939416	0.875
4657	72020	172.704980497353	0.875
4657	73044	174.7	0.75
4657	73205	174.909506986474	0.875
4657	74559	177.6	0.375
4657	74767	178	0.5
4657	75871	180.2	0.75
4657	75969	180.4	0.875
4657	76108	180.604760937222	0.875
4657	76181	180.80831726349	0.875
4657	77379	183.1	0.5
4657	77475	183.3	0.875
4657	77650	183.708315729808	0.625
4657	77655	183.709658972595	0.625
4657	77794	184.018695655852	0.75
4657	78722	186.1	0.75
4657	78981	186.6	0.5
4657	79091	186.822677709759	0.875
4657	79245	187.128971115686	0.75
4657	80273	189.4	0.75
4657	80432	189.731250133795	0.625
4657	80626	190.149699279178	0.625
4657	80711	190.384655503743	0.875
4657	81713	192.7	0.75
4657	81963	193.2	0.375
4657	82053	193.407777742368	0.875
4657	82061	193.429305008474	0.875
4657	82188	193.734634963157	0.625
4657	82190	193.737769668296	0.625
4657	82221	193.809354407088	0.625
4657	82232	193.842787368567	0.875
4657	82235	193.845029185285	0.875
4657	82306	194.001045821986	0.875
4657	82355	194.104525707654	0.875
4657	83343	196.2	1
4657	83453	196.5	0.75
4657	83667	196.905637352124	0.625
4657	83770	197.110103016488	0.875
4657	83775	197.112650429957	0.875
4657	83914	197.31285880745	0.875
4657	83926	197.31427360932	0.875
4657	83942	197.328632381211	0.875
4657	84922	199.5	0.875
4657	85061	199.8	0.75
4657	85301	200.309931334184	0.5
4657	86322	202.5	0.75
4657	86579	203.1	0.375
4657	87541	205.3	0.625
4657	87881	206	0.25
4657	87987	206.203371252152	0.875
4657	88141	206.511442414293	0.75
4657	89247	208.7	0.5
4657	89499	209.2	0.375
4657	89728	209.662305155915	0.375
4657	89893	210.062894908736	0.625
4657	90244	210.672643934664	0.375
4657	90269	210.706505817659	-1.25
4657	91384	213.2	0.5
4657	91538	213.5	0.75
4657	91648	213.717244250245	0.875
4657	91676	213.800256276107	0.625
4657	92707	216	0.75
4657	92841	216.3	0.75
4657	93458	217.207049032617	-0.25
4657	93463	217.211486182072	-0.125
4657	93635	217.512792365369	0.75
4657	93637	217.512902515594	0.75
4657	94645	219.5	0.875
4657	94766	219.7	0.875
4657	94834	219.811267912785	0.875
4657	95751	222.1	0.875
4657	95875	222.3	0.875
4657	95998	222.514890477745	0.875
4657	97101	224.7	0.625
4657	97169	224.9	0.875
4657	97259	225.210167283161	0.75
4657	97326	225.416371523017	0.875
4657	97383	225.622322332894	0.875
4658	37	20.3	0.2
4658	90	20.712694174309	0.4
4658	181	21.113273144936	0.4
4658	239	21.348110416685	0.2
4658	1201	23.4	0
4658	1334	23.7	0.3
4658	1419	23.831763824084	0.3
4658	1530	24.105161279297	0.4
4658	2557	26.2	0.1
4658	2771	26.7	0.5
4658	2800	26.718505481808	0.4
4658	2888	26.913271949111	0.2
4658	2895	26.920355232565	0.2
4658	2935	27.018883114304	0.2
4658	3094	27.421358607336	0.5
4658	3096	27.422056719998	0.4
4658	3101	27.427422928207	0.5
4658	4223	29.8	0.3
4658	4513	30.4	0.6
4658	4644	30.701943699151	0.3
4658	4810	31.0107048406	0.3
4658	5935	33.3	0.4
4658	6194	33.8	0.5
4658	6335	34.106065984845	0.3
4658	7391	36.1	0.2
4658	7527	36.5	0.4
4658	7751	37.003383286988	0.5
4658	7932	37.405643535328	0.8
4658	8136	37.809038788553	0.8
4658	9192	39.6	0.2
4658	9389	40	0.4
4658	9507	40.207003856303	0.2
4658	9804	40.721855792744	0.5
4658	9831	40.754825190301	0.4
4658	11136	43.4	0.4
4658	11244	43.7	0.3
4658	11527	44.405795457109	0.7
4658	12516	46.5	0.1
4658	12758	47	0.5
4658	12873	47.213312896777	0.3
4658	12997	47.43179942086	0.2
4658	14058	49.6	0.4
4658	14204	49.9	0.3
4658	14332	50.20849082261	0.3
4658	14338	50.216337834705	0.3
4658	14424	50.425472828993	0.2
4658	14500	50.612026554147	0.4
4658	15572	52.8	0.4
4658	15680	53	0.2
4658	15969	53.628541741376	0.6
4658	16056	53.843595236281	0.2
4658	17041	56.2	0.2
4658	17217	56.7	0.5
4658	18067	58.4	0.1
4658	18293	58.804465704266	0.4
4658	18402	58.955500768663	0.4
4658	18486	59.106836447975	0.4
4658	18530	59.215558294987	0.4
4658	18626	59.34276486403	0.4
4658	19578	61.3	0
4658	20033	62.120020808322	0.3
4658	20231	62.5	1.2
4658	20249	62.514955422502	0.3
4658	21280	64.7	0.2
4658	21463	65.1	0.4
4658	21623	65.40759911946	0.3
4658	21683	65.609147320126	0.2
4658	22849	68.1	0.6
4658	23008	68.4	0.3
4658	23158	68.706045019023	0.3
4658	23296	69.012601817965	0.3
4658	24462	71.5	0.4
4658	24644	71.9	0.4
4658	24854	72.402564596529	0.5
4658	25206	73.008476886103	0.6
4658	25333	73.208515985662	0.2
4658	26280	74.9	0.1
4658	26567	75.5	0.6
4658	26653	75.704903352607	0.2
4658	26809	76.013024203553	0.3
4658	27996	78.6	0.4
4658	28166	79.1	0.5
4658	29116	81.3	0.2
4658	29200	81.500122096382	0.2
4658	29514	82.209695972748	0.7
4658	29579	82.36324951504	0.6
4658	30557	84.3	0.1
4658	30634	84.5	0.2
4658	30782	84.914648537761	0.4
4658	31794	86.9	0.2
4658	31907	87.202320567895	0.3
4658	31970	87.413325484484	0.2
4658	32184	87.915092179228	0.5
4658	32191	87.920793845072	0.5
4658	33126	90	0.1
4658	33379	90.5	0.5
4658	34501	93.2	0.4
4658	34741	93.8	0.6
4658	34806	93.91011168175	0.3
4658	34838	94.000938661994	0.2
4658	35843	96.3	0.2
4658	36164	97.001510766865	0.7
4658	36217	97.103499974912	0.2
4658	36432	97.512273604826	0.4
4658	37381	99.5	0.1
4658	37457	99.7	0.2
4658	37658	100.016565167677	0.3
4658	37693	100.104099398263	0.3
4658	38567	101.9	0.1
4658	38807	102.4	0.5
4658	39140	103.038178080092	0.5
4658	39267	103.342124003935	0.3
4658	39361	103.5025599387	1.1
4658	40315	105.6	0.1
4658	40472	105.9	0.3
4658	40795	106.405629171966	0.5
4658	40806	106.418583174501	0.5
4658	41819	108.6	0.2
4658	42064	109.1	0.5
4658	42240	109.400694441781	0.3
4658	42420	109.80659604523	0.4
4658	43507	112.1	0.3
4658	43620	112.304445919538	0.2
4658	43774	112.706246670916	0.4
4658	43854	112.917785816125	0.2
4658	43888	113.022765784897	0.4
4658	43997	113.219755762789	0.3
4658	44001	113.224390686503	0.2
4658	45043	115.4	0.4
4658	45278	116	0.6
4658	45359	116.213280138245	0.2
4658	45506	116.513508402881	0.3
4658	45692	116.814405369079	0.3
4658	46710	118.5	0.2
4658	46941	118.909303367673	0.4
4658	47795	120.9	0.1
4658	48152	121.60422486657	0.7
4658	48261	121.805664081801	0.2
4658	48459	122.208381358554	0.5
4658	48481	122.215412125002	0.4
4658	48570	122.40980364543	0.2
4658	48573	122.411069176698	0.5
4658	49435	124.4	0.1
4658	49629	124.7	0.3
4658	49805	125.004258015726	0.3
4658	49922	125.20813379175	0.3
4658	50048	125.522990050407	0.3
4658	50065	125.60570155491	0.6
4658	50069	125.607960713829	0.6
4658	51012	127.8	0.1
4658	51139	128.1	0.3
4658	51368	128.608993072456	0.5
4658	51373	128.619038470504	0.4
4658	51460	128.814378502352	0.2
4658	52461	131	0.3
4658	52647	131.4	0.4
4658	52846	131.707318563902	0.1
4658	52890	131.804634211766	0.4
4658	52896	131.806044648485	0.4
4658	53890	133.9	0.3
4658	54025	134.2	0.3
4658	54168	134.50010322994	0.3
4658	55273	136.8	0.4
4658	55407	137.1	0.3
4658	55610	137.602754946721	0.5
4658	55748	137.904900783553	0.3
4658	55752	137.906976214253	0.3
4658	56780	140.2	0.2
4658	56954	140.605919315847	0.4
4658	57170	141.006403530889	0.4
4658	57188	141.010362353249	0.4
4658	57326	141.314778904241	0.3
4658	57330	141.318325261747	0.3
4658	57492	141.63256125889	0.3
4658	57494	141.632793380107	0.3
4658	57502	141.660474799789	0.3
4658	58551	143.9	0.5
4658	58757	144.4	0.5
4658	58944	144.802834286636	0.4
4658	59912	146.9	0.3
4658	60179	147.408419340555	0.5
4658	60457	148.015882549242	0.6
4658	60562	148.218832398874	0.2
4658	60651	148.414702579046	0.2
4658	60676	148.427414863854	0.2
4658	60765	148.617773553686	0.2
4658	61985	151.1	0.5
4658	62105	151.4	0.3
4658	62380	151.912697367563	0.5
4658	62414	152.030091646285	0.3
4658	63559	154.5	0.4
4658	63757	155	0.5
4658	63901	155.406599880407	0.4
4658	63904	155.407432028329	0.4
4658	63989	155.606988065327	0.2
4658	65170	158.4	0.7
4658	65258	158.6	0.2
4658	65606	159.405066610697	0.8
4658	65614	159.408965096483	0.8
4658	65807	159.814520440854	0.4
4658	65826	159.81953101708	0.4
4658	67079	162.1	0.5
4658	67212	162.4	0.3
4658	68410	164.8	0.2
4658	68608	165.306413339301	0.5
4658	68721	165.515474108933	0.2
4658	68800	165.715343406383	0.2
4658	69942	168.2	0.4
4658	70124	168.6	0.4
4658	70230	168.803297500107	0.2
4658	70409	169.112481210729	0.3
4658	70470	169.220404169548	0.3
4658	71529	171.5	0.2
4658	71729	172	0.5
4658	71840	172.301024176802	0.3
4658	71930	172.504187939416	0.2
4658	72020	172.704980497353	0.2
4658	73044	174.7	0.2
4658	73205	174.909506986474	0.2
4658	74559	177.6	0.5
4658	74767	178	0.4
4658	75871	180.2	0.2
4658	75969	180.4	0.2
4658	76108	180.604760937222	0.2
4658	76181	180.80831726349	0.2
4658	77379	183.1	0.4
4658	77475	183.3	0.2
4658	77650	183.708315729808	0.3
4658	77655	183.709658972595	0.4
4658	77794	184.018695655852	0.3
4658	78722	186.1	0.2
4658	78981	186.6	0.5
4658	79091	186.822677709759	0.2
4658	79245	187.128971115686	0.3
4658	80273	189.4	0.2
4658	80432	189.731250133795	0.3
4658	80626	190.149699279178	0.4
4658	80711	190.384655503743	0.2
4658	81713	192.7	0.2
4658	81963	193.2	0.5
4658	82053	193.407777742368	0.2
4658	82061	193.429305008474	0.2
4658	82188	193.734634963157	0.3
4658	82190	193.737769668296	0.3
4658	82221	193.809354407088	0.4
4658	82232	193.842787368567	0.1
4658	82235	193.845029185285	0.1
4658	82306	194.001045821986	0.2
4658	82355	194.104525707654	0.2
4658	83343	196.2	0
4658	83453	196.5	0.3
4658	83667	196.905637352124	0.4
4658	83770	197.110103016488	0.2
4658	83775	197.112650429957	0.2
4658	83914	197.31285880745	0.2
4658	83926	197.31427360932	0.2
4658	83942	197.328632381211	0.2
4658	84922	199.5	0.1
4658	85061	199.8	0.3
4658	85301	200.309931334184	0.5
4658	86322	202.5	0.2
4658	86579	203.1	0.6
4658	87541	205.3	0.3
4658	87881	206	0.7
4658	87987	206.203371252152	0.2
4658	88141	206.511442414293	0.3
4658	89247	208.7	0.4
4658	89499	209.2	0.5
4658	89728	209.662305155915	0.6
4658	89893	210.062894908736	0.4
4658	90244	210.672643934664	0.6
4658	90269	210.706505817659	1.5
4658	91384	213.2	0.4
4658	91538	213.5	0.3
4658	91648	213.717244250245	0.2
4658	91676	213.800256276107	0.3
4658	92707	216	0.2
4658	92841	216.3	0.3
4658	93458	217.207049032617	0.9
4658	93463	217.211486182072	0.9
4658	93635	217.512792365369	0.3
4658	93637	217.512902515594	0.3
4658	94645	219.5	0.1
4658	94766	219.7	0.2
4658	94834	219.811267912785	0.2
4658	95751	222.1	0.1
4658	95875	222.3	0.2
4658	95998	222.514890477745	0.2
4658	97101	224.7	0.3
4658	97169	224.9	0.2
4658	97259	225.210167283161	0.3
4658	97326	225.416371523017	0.2
4658	97383	225.622322332894	0.2
4659	41	20.3	1
4659	64	20.6	2