version 2
run Stability-81-20130528-00:55:32-21385
attr configname Stability
attr datetime 20130528-00:55:32
attr experiment Stability
attr inifile omnetpp.ini
attr iterationvars $0=1e-2
attr iterationvars2 "$0=1e-2, $repetition=1"
attr measurement $0=1e-2
attr network Network
attr processid 21385
attr repetition 1
attr replication #1
attr resultdir results
attr runnumber 81
attr seedset 81

vector 7953  Network.churner  inGoingSizeSig:vector  ETV
vector 7872  Network.dyn_peer[5]  lookupHopsSig:vector  ETV
vector 7873  Network.dyn_peer[5]  lookupStabilitySig:vector  ETV
vector 7874  Network.dyn_peer[5]  lookupTimeSig:vector  ETV
vector 7911  Network.dyn_peer[18]  lookupHopsSig:vector  ETV
vector 7912  Network.dyn_peer[18]  lookupStabilitySig:vector  ETV
vector 7913  Network.dyn_peer[18]  lookupTimeSig:vector  ETV
vector 7923  Network.dyn_peer[22]  lookupHopsSig:vector  ETV
vector 7924  Network.dyn_peer[22]  lookupStabilitySig:vector  ETV
vector 7925  Network.dyn_peer[22]  lookupTimeSig:vector  ETV
vector 7926  Network.dyn_peer[23]  lookupHopsSig:vector  ETV
vector 7927  Network.dyn_peer[23]  lookupStabilitySig:vector  ETV
vector 7928  Network.dyn_peer[23]  lookupTimeSig:vector  ETV
vector 7950  Network.dyn_peer[31]  lookupHopsSig:vector  ETV
vector 7951  Network.dyn_peer[31]  lookupStabilitySig:vector  ETV
vector 7952  Network.dyn_peer[31]  lookupTimeSig:vector  ETV
vector 7863  Network.dyn_peer[2]  lookupHopsSig:vector  ETV
vector 7864  Network.dyn_peer[2]  lookupStabilitySig:vector  ETV
vector 7865  Network.dyn_peer[2]  lookupTimeSig:vector  ETV
vector 7866  Network.dyn_peer[3]  lookupHopsSig:vector  ETV
vector 7867  Network.dyn_peer[3]  lookupStabilitySig:vector  ETV
vector 7868  Network.dyn_peer[3]  lookupTimeSig:vector  ETV
vector 7890  Network.dyn_peer[11]  lookupHopsSig:vector  ETV
vector 7891  Network.dyn_peer[11]  lookupStabilitySig:vector  ETV
vector 7892  Network.dyn_peer[11]  lookupTimeSig:vector  ETV
vector 7899  Network.dyn_peer[14]  lookupHopsSig:vector  ETV
vector 7900  Network.dyn_peer[14]  lookupStabilitySig:vector  ETV
vector 7901  Network.dyn_peer[14]  lookupTimeSig:vector  ETV
vector 7905  Network.dyn_peer[16]  lookupHopsSig:vector  ETV
vector 7906  Network.dyn_peer[16]  lookupStabilitySig:vector  ETV
vector 7907  Network.dyn_peer[16]  lookupTimeSig:vector  ETV
vector 7929  Network.dyn_peer[24]  lookupHopsSig:vector  ETV
vector 7930  Network.dyn_peer[24]  lookupStabilitySig:vector  ETV
vector 7931  Network.dyn_peer[24]  lookupTimeSig:vector  ETV
vector 7944  Network.dyn_peer[29]  lookupHopsSig:vector  ETV
vector 7945  Network.dyn_peer[29]  lookupStabilitySig:vector  ETV
vector 7946  Network.dyn_peer[29]  lookupTimeSig:vector  ETV
vector 7860  Network.dyn_peer[1]  lookupHopsSig:vector  ETV
vector 7861  Network.dyn_peer[1]  lookupStabilitySig:vector  ETV
vector 7862  Network.dyn_peer[1]  lookupTimeSig:vector  ETV
vector 7875  Network.dyn_peer[6]  lookupHopsSig:vector  ETV
vector 7876  Network.dyn_peer[6]  lookupStabilitySig:vector  ETV
vector 7877  Network.dyn_peer[6]  lookupTimeSig:vector  ETV
vector 7878  Network.dyn_peer[7]  lookupHopsSig:vector  ETV
vector 7879  Network.dyn_peer[7]  lookupStabilitySig:vector  ETV
vector 7880  Network.dyn_peer[7]  lookupTimeSig:vector  ETV
vector 7887  Network.dyn_peer[10]  lookupHopsSig:vector  ETV
vector 7888  Network.dyn_peer[10]  lookupStabilitySig:vector  ETV
vector 7889  Network.dyn_peer[10]  lookupTimeSig:vector  ETV
vector 7896  Network.dyn_peer[13]  lookupHopsSig:vector  ETV
vector 7897  Network.dyn_peer[13]  lookupStabilitySig:vector  ETV
vector 7898  Network.dyn_peer[13]  lookupTimeSig:vector  ETV
vector 7908  Network.dyn_peer[17]  lookupHopsSig:vector  ETV
vector 7909  Network.dyn_peer[17]  lookupStabilitySig:vector  ETV
vector 7910  Network.dyn_peer[17]  lookupTimeSig:vector  ETV
vector 7869  Network.dyn_peer[4]  lookupHopsSig:vector  ETV
vector 7870  Network.dyn_peer[4]  lookupStabilitySig:vector  ETV
vector 7871  Network.dyn_peer[4]  lookupTimeSig:vector  ETV
vector 7881  Network.dyn_peer[8]  lookupHopsSig:vector  ETV
vector 7882  Network.dyn_peer[8]  lookupStabilitySig:vector  ETV
vector 7883  Network.dyn_peer[8]  lookupTimeSig:vector  ETV
vector 7884  Network.dyn_peer[9]  lookupHopsSig:vector  ETV
vector 7885  Network.dyn_peer[9]  lookupStabilitySig:vector  ETV
vector 7886  Network.dyn_peer[9]  lookupTimeSig:vector  ETV
vector 7914  Network.dyn_peer[19]  lookupHopsSig:vector  ETV
vector 7915  Network.dyn_peer[19]  lookupStabilitySig:vector  ETV
vector 7916  Network.dyn_peer[19]  lookupTimeSig:vector  ETV
vector 7938  Network.dyn_peer[27]  lookupHopsSig:vector  ETV
vector 7939  Network.dyn_peer[27]  lookupStabilitySig:vector  ETV
vector 7940  Network.dyn_peer[27]  lookupTimeSig:vector  ETV
vector 7893  Network.dyn_peer[12]  lookupHopsSig:vector  ETV
vector 7894  Network.dyn_peer[12]  lookupStabilitySig:vector  ETV
vector 7895  Network.dyn_peer[12]  lookupTimeSig:vector  ETV
vector 7902  Network.dyn_peer[15]  lookupHopsSig:vector  ETV
vector 7903  Network.dyn_peer[15]  lookupStabilitySig:vector  ETV
vector 7904  Network.dyn_peer[15]  lookupTimeSig:vector  ETV
vector 7917  Network.dyn_peer[20]  lookupHopsSig:vector  ETV
vector 7918  Network.dyn_peer[20]  lookupStabilitySig:vector  ETV
vector 7919  Network.dyn_peer[20]  lookupTimeSig:vector  ETV
vector 7920  Network.dyn_peer[21]  lookupHopsSig:vector  ETV
vector 7921  Network.dyn_peer[21]  lookupStabilitySig:vector  ETV
vector 7922  Network.dyn_peer[21]  lookupTimeSig:vector  ETV
vector 7932  Network.dyn_peer[25]  lookupHopsSig:vector  ETV
vector 7933  Network.dyn_peer[25]  lookupStabilitySig:vector  ETV
vector 7934  Network.dyn_peer[25]  lookupTimeSig:vector  ETV
vector 7935  Network.dyn_peer[26]  lookupHopsSig:vector  ETV
vector 7936  Network.dyn_peer[26]  lookupStabilitySig:vector  ETV
vector 7937  Network.dyn_peer[26]  lookupTimeSig:vector  ETV
vector 7941  Network.dyn_peer[28]  lookupHopsSig:vector  ETV
vector 7942  Network.dyn_peer[28]  lookupStabilitySig:vector  ETV
vector 7943  Network.dyn_peer[28]  lookupTimeSig:vector  ETV
vector 7857  Network.dyn_peer[0]  lookupHopsSig:vector  ETV
vector 7858  Network.dyn_peer[0]  lookupStabilitySig:vector  ETV
vector 7859  Network.dyn_peer[0]  lookupTimeSig:vector  ETV
vector 7947  Network.dyn_peer[30]  lookupHopsSig:vector  ETV
vector 7948  Network.dyn_peer[30]  lookupStabilitySig:vector  ETV
vector 7949  Network.dyn_peer[30]  lookupTimeSig:vector  ETV
7857	396	20.50001	5
7857	776	21.10001	5
7857	1156	21.409972997515	2
7857	2010	22.113461152799	5
7857	2398	22.410946629952	11
7857	2738	22.615361069323	2
7857	3640	23.315361069323	6
7857	3865	23.515969449566	1
7857	4115	23.723506072906	1
7857	4435	24.025673364043	2
7857	4552	24.132456786569	3
7857	4940	24.435021669554	3
7857	5436	24.832183479954	2
7857	6146	25.434576623016	5
7857	6282	25.535021669554	10
7857	6853	25.94305555686	5
7857	7138	26.14305555686	1
7857	7923	26.750780214864	8
7857	8077	26.877512930719	6
7857	8617	27.380872600972	5
7857	9439	28.080872600972	6
7857	9457	28.086889510452	0
7857	10182	28.686889510452	6
7857	10396	28.888383640955	1
7857	10746	29.191443825793	2
7857	10927	29.363412489492	2
7857	11262	29.656559354435	5
7857	11560	29.901339634526	6
7857	11780	30.05761032501	3
7857	11817	30.063574109945	7
7857	11866	30.087873406402	7
7857	12480	30.596940651712	5
7857	13471	31.496940651712	8
7857	13846	31.802441680686	2
7857	14215	32.121866284342	2
7857	15274	32.826785704203	9
7857	15659	33.126785704203	2
7857	16460	33.833883204355	6
7857	16985	34.236743468592	3
7857	17151	34.396455712061	3
7857	17196	34.445112652833	1
7857	17426	34.64808013067	2
7857	18126	35.14808013067	4
7857	18964	35.75639741987	5
7857	19319	36.108063058018	6
7857	19696	36.361357858833	7
7857	19735	36.383225904854	4
7857	19964	36.563674314005	1
7857	20222	36.765928644747	2
7857	21782	37.971600955696	11
7857	21857	38.02393348971	10
7857	22206	38.325712360883	3
7857	22765	38.825712360883	4
7857	23360	39.233522318484	3
7857	23757	39.534660936071	2
7857	24055	39.836421488573	2
7857	24465	40.146118250752	2
7857	24789	40.419075613516	3
7857	25047	40.615838654787	3
7857	25407	40.855193522656	8
7857	26050	41.363401520059	5
7857	26790	41.963401520059	5
7857	27142	42.267054063463	3
7857	27636	42.684183733316	2
7857	27712	42.773636104841	5
7857	28545	43.474381528377	7
7857	29363	44.274381528377	7
7857	30236	44.975648756971	7
7857	30535	45.181671204567	1
7857	31430	45.886324261197	8
7857	32330	46.686324261197	7
7857	33126	47.29325669118	5
7857	33197	47.355261991457	5
7857	34196	48.264114974302	10
7857	34603	48.564114974302	3
7857	35190	49.066757267252	4
7857	35842	49.557365116694	4
7857	36634	50.164528468128	6
7857	37732	50.964528468128	8
7857	38016	51.174368613108	1
7857	39104	51.980427198628	7
7857	39250	52.080537198628	1
7857	39773	52.480537198628	4
7857	40291	52.881518446495	4
7857	40881	53.381818153431	4
7857	41979	54.181928153431	8
7857	42645	54.681928153431	4
7857	43106	55.089451006177	3
7857	43162	55.157595912867	3
7857	44145	55.957705912867	8
7857	45131	56.657705912867	7
7857	46679	57.67434753749	11
7857	47119	58.07434753749	4
7857	47951	58.684142059839	5
7857	47982	58.704953914688	5
7857	48444	59.109025005656	3
7857	48678	59.309404203452	2
7857	49532	60.009404203452	6
7857	50185	60.409514203452	4
7857	50611	60.709514203452	2
7857	51426	61.314953996435	5
7857	51638	61.433054740893	5
7857	52357	61.93572891047	5
7857	52411	61.949113723431	5
7857	52650	62.149849815171	2
7857	54694	63.849849815171	17
7857	55636	64.579574987401	5
7857	56131	65.050906491643	13
7857	56280	65.151016491643	1
7857	57070	65.751016491643	5
7857	57797	66.354022012711	5
7857	59785	68.055732476068	18
7857	60239	68.455732476068	3
7857	60535	68.759626102856	2
7857	60896	69.068938503129	2
7857	61229	69.369998896758	2
7857	61254	69.390859380801	2
7857	61941	69.998692742254	6
7857	62662	70.598692742254	6
7857	62845	70.727702667581	2
7857	63688	71.429186216577	10
7857	65016	72.629186216577	11
7857	65408	73.005725884218	7
7857	65823	73.339377690038	6
7857	66052	73.50775881176	5
7857	66437	73.811216081826	2
7857	66604	73.951028412229	2
7857	66840	74.120836178281	2
7857	67778	74.825849927122	7
7857	68623	75.625849927122	7
7857	68879	75.827044932968	1
7857	69099	76.033237598479	1
7857	69181	76.123609205163	4
7857	69523	76.442779021152	4
7857	69530	76.462072921683	4
7857	69639	76.531018184211	3
7857	69781	76.649805250294	1
7857	70053	76.942933288401	3
7857	70160	77.043043288401	1
7857	71223	77.943043288401	8
7857	71487	78.152774824645	1
7857	71876	78.452884824645	3
7857	72175	78.752884824645	2
7857	72681	79.258120359865	4
7857	73249	79.774780775108	4
7857	73388	79.88365559831	1
7857	73554	80.08365559831	1
7857	74232	80.785253882351	6
7857	74240	80.794487231941	6
7857	74597	81.093713273479	2
7857	74869	81.300727178425	2
7857	75440	81.700727178425	5
7857	76050	82.09832583646	3
7857	76056	82.103211112116	3
7857	76665	82.602125820959	4
7857	76906	82.802235820959	3
7857	77576	83.402235820959	6
7857	77793	83.603425038614	1
7857	78270	84.069102425511	6
7857	78404	84.187162805296	3
7857	78513	84.277943500309	1
7857	78682	84.387201526094	1
7857	79792	85.387201526094	11
7857	80593	85.989072145634	6
7857	81054	86.363411049538	4
7857	81246	86.49728314849	5
7857	81310	86.564770586756	1
7857	81637	86.873981097005	2
7857	81662	86.893854422178	2
7857	81809	87.004656909598	4
7857	81994	87.18684510228	2
7857	82543	87.587040327298	3
7857	82699	87.70266152431	8
7857	83704	88.412751172215	7
7857	83971	88.612751172215	1
7857	84850	89.206480943787	2
7857	85131	89.414178488417	8
7857	85423	89.62355013369	1
7857	86742	90.527370157529	12
7857	87242	90.927370157529	3
7857	88335	91.92996129206	10
7857	88939	92.42996129206	4
7857	89631	92.939237126432	5
7857	90687	93.743701002069	4
7857	91041	94.045837621683	2
7857	91571	94.449740920035	3
7857	91584	94.450462249647	3
7857	91834	94.650472249647	1
7857	91845	94.6507128388	1
7857	91953	94.750047482581	2
7857	92068	94.839237126432	22
7857	92217	94.962169960636	2
7857	92548	95.271274324492	3
7857	93691	96.171274324492	10
7857	93989	96.375987457348	1
7857	94562	96.779658980168	4
7857	95163	97.279658980168	5
7857	96557	98.492556625004	12
7857	97140	98.996137134507	4
7857	97812	99.60825887203	5
7857	98201	100.010282555276	3
7857	98227	100.062073215404	2
7857	98345	100.194108044302	5
7857	98628	100.400402133131	2
7857	99239	100.900402133131	4
7857	99804	101.403646811605	5
7857	100511	102.003646811605	7
7857	101037	102.404501541824	3
7857	101186	102.507086950403	3
7857	101544	102.811282613754	2
7857	101746	103.005319541072	5
7857	102001	103.213793527997	3
7857	102370	103.516887735229	3
7857	102735	103.820656350509	2
7857	103214	104.224162621773	3
7857	103971	104.831143372561	5
7857	104265	105.13983136223	2
7857	104938	105.742987285343	7
7857	106229	106.842987285343	10
7857	106638	107.149507807803	2
7857	107221	107.575153003455	5
7857	107506	107.854847594902	6
7857	107680	107.982842376738	3
7857	108486	108.656615585486	7
7857	108772	108.961748506886	7
7857	108798	108.971472600009	2
7857	109150	109.274821526948	3
7857	110182	110.174821526948	8
7857	111247	110.976336651494	5
7857	112422	111.876336651494	9
7857	112909	112.176446651494	3
7857	113484	112.676446651494	4
7857	114112	113.189193716256	4
7857	114620	113.597648111152	3
7857	115265	114.103394232366	13
7857	115378	114.198912909546	5
7857	115410	114.212690638317	4
7857	115931	114.615490599293	4
7857	116374	115.015490599293	3
7857	116707	115.32510145945	3
7857	117193	115.82510145945	4
7857	117509	116.025166881272	1
7857	118016	116.525491763571	4
7857	118378	116.925756701581	3
7857	119236	117.731639361918	8
7857	119767	118.131639361918	4
7857	120413	118.741419520372	5
7857	120828	119.142447965397	3
7857	120969	119.254227328191	3
7857	121036	119.342847834474	1
7857	121431	119.651185552476	3
7857	121914	120.051185552476	3
7857	122520	120.56025303371	5
7857	123079	120.947354961816	7
7857	123433	121.174110631997	1
7857	123471	121.227170841703	2
7857	123530	121.261234612427	7
7857	124255	121.869105582711	6
7857	124450	122.069105582711	2
7857	125373	122.971926383777	8
7857	125763	123.281364519249	2
7857	126190	123.688873066124	3
7857	126419	123.876419133862	0
7857	126557	124.002950343381	3
7857	126686	124.107785687389	7
7857	126943	124.312279058302	2
7857	126946	124.316021472097	2
7857	126974	124.345492362906	0
7857	127336	124.647672698921	3
7857	127791	124.947672698921	2
7857	128051	125.165169075608	1
7857	128321	125.365279075608	2
7857	129309	126.165279075608	7
7857	129909	126.722328582542	8
7857	129956	126.767382992007	5
7857	130218	126.976473074341	2
7857	130394	127.183452747438	1
7857	131316	127.92199488668	2
7857	131906	128.42199488668	5
7857	132302	128.749257327412	2
7857	132538	129.012635551379	6
7857	132782	129.249697712923	4
7857	132883	129.313388168783	2
7857	133113	129.517321842551	1
7857	133354	129.756567273307	4
7857	133371	129.797351733247	5
7857	133421	129.805567883196	0
7857	134623	130.824804227804	2
7857	135425	131.524914227804	7
7857	136317	132.324914227804	7
7857	136655	132.625566294531	2
7857	136901	132.82662261059	2
7857	137111	133.032662894075	3
7857	137518	133.439337491934	3
7857	137602	133.532845380318	3
7857	137808	133.736257537046	9
7858	396	20.50001	0.375
7858	776	21.10001	0.375
7858	1156	21.409972997515	0.75
7858	2010	22.113461152799	0.375
7858	2398	22.410946629952	-0.375
7858	2738	22.615361069323	0.75
7858	3640	23.315361069323	0.25
7858	3865	23.515969449566	0.875
7858	4115	23.723506072906	0.875
7858	4435	24.025673364043	0.75
7858	4552	24.132456786569	0.625
7858	4940	24.435021669554	0.66666665673256
7858	5436	24.832183479954	0.75
7858	6146	25.434576623016	0.375
7858	6282	25.535021669554	-0.25
7858	6853	25.94305555686	0.375
7858	7138	26.14305555686	0.875
7858	7923	26.750780214864	0
7858	8077	26.877512930719	0.25
7858	8617	27.380872600972	0.375
7858	9439	28.080872600972	0.25
7858	9457	28.086889510452	1
7858	10182	28.686889510452	0.25
7858	10396	28.888383640955	0.875
7858	10746	29.191443825793	0.75
7858	10927	29.363412489492	0.75
7858	11262	29.656559354435	0.375
7858	11560	29.901339634526	0.25
7858	11780	30.05761032501	0.625
7858	11817	30.063574109945	0.125
7858	11866	30.087873406402	0.125
7858	12480	30.596940651712	0.375
7858	13471	31.496940651712	0
7858	13846	31.802441680686	0.75
7858	14215	32.121866284342	0.75
7858	15274	32.826785704203	-0.125
7858	15659	33.126785704203	0.75
7858	16460	33.833883204355	0.25
7858	16985	34.236743468592	0.625
7858	17151	34.396455712061	0.625
7858	17196	34.445112652833	0.875
7858	17426	34.64808013067	0.75
7858	18126	35.14808013067	0.5
7858	18964	35.75639741987	0.375
7858	19319	36.108063058018	0.25
7858	19696	36.361357858833	0.125
7858	19735	36.383225904854	0.5
7858	19964	36.563674314005	0.875
7858	20222	36.765928644747	0.75
7858	21782	37.971600955696	-0.375
7858	21857	38.02393348971	-0.25
7858	22206	38.325712360883	0.625
7858	22765	38.825712360883	0.5
7858	23360	39.233522318484	0.625
7858	23757	39.534660936071	0.75
7858	24055	39.836421488573	0.75
7858	24465	40.146118250752	0.75
7858	24789	40.419075613516	0.625
7858	25047	40.615838654787	0.625
7858	25407	40.855193522656	0
7858	26050	41.363401520059	0.375
7858	26790	41.963401520059	0.375
7858	27142	42.267054063463	0.625
7858	27636	42.684183733316	0.75
7858	27712	42.773636104841	0.375
7858	28545	43.474381528377	0.125
7858	29363	44.274381528377	0.125
7858	30236	44.975648756971	0.125
7858	30535	45.181671204567	0.875
7858	31430	45.886324261197	0
7858	32330	46.686324261197	0.125
7858	33126	47.29325669118	0.375
7858	33197	47.355261991457	0.375
7858	34196	48.264114974302	-0.25
7858	34603	48.564114974302	0.625
7858	35190	49.066757267252	0.5
7858	35842	49.557365116694	0.5
7858	36634	50.164528468128	0.25
7858	37732	50.964528468128	0
7858	38016	51.174368613108	0.875
7858	39104	51.980427198628	0.125
7858	39250	52.080537198628	0.875
7858	39773	52.480537198628	0.5
7858	40291	52.881518446495	0.5
7858	40881	53.381818153431	0.5
7858	41979	54.181928153431	0
7858	42645	54.681928153431	0.5
7858	43106	55.089451006177	0.625
7858	43162	55.157595912867	0.625
7858	44145	55.957705912867	0
7858	45131	56.657705912867	0.125
7858	46679	57.67434753749	-0.375
7858	47119	58.07434753749	0.5
7858	47951	58.684142059839	0.375
7858	47982	58.704953914688	0.375
7858	48444	59.109025005656	0.625
7858	48678	59.309404203452	0.75
7858	49532	60.009404203452	0.25
7858	50185	60.409514203452	0.5
7858	50611	60.709514203452	0.75
7858	51426	61.314953996435	0.375
7858	51638	61.433054740893	0.44444441795349
7858	52357	61.93572891047	0.375
7858	52411	61.949113723431	0.375
7858	52650	62.149849815171	0.75
7858	54694	63.849849815171	-1.125
7858	55636	64.579574987401	0.375
7858	56131	65.050906491643	-0.625
7858	56280	65.151016491643	0.875
7858	57070	65.751016491643	0.375
7858	57797	66.354022012711	0.375
7858	59785	68.055732476068	-1.25
7858	60239	68.455732476068	0.625
7858	60535	68.759626102856	0.75
7858	60896	69.068938503129	0.75
7858	61229	69.369998896758	0.75
7858	61254	69.390859380801	0.75
7858	61941	69.998692742254	0.25
7858	62662	70.598692742254	0.25
7858	62845	70.727702667581	0.75
7858	63688	71.429186216577	-0.25
7858	65016	72.629186216577	-0.375
7858	65408	73.005725884218	0.125
7858	65823	73.339377690038	0.25
7858	66052	73.50775881176	0.375
7858	66437	73.811216081826	0.75
7858	66604	73.951028412229	0.75
7858	66840	74.120836178281	0.75
7858	67778	74.825849927122	0.125
7858	68623	75.625849927122	0.125
7858	68879	75.827044932968	0.875
7858	69099	76.033237598479	0.875
7858	69181	76.123609205163	0.5
7858	69523	76.442779021152	0.5
7858	69530	76.462072921683	0.5
7858	69639	76.531018184211	0.625
7858	69781	76.649805250294	0.875
7858	70053	76.942933288401	0.625
7858	70160	77.043043288401	0.875
7858	71223	77.943043288401	0
7858	71487	78.152774824645	0.875
7858	71876	78.452884824645	0.625
7858	72175	78.752884824645	0.75
7858	72681	79.258120359865	0.5
7858	73249	79.774780775108	0.5
7858	73388	79.88365559831	0.875
7858	73554	80.08365559831	0.875
7858	74232	80.785253882351	0.25
7858	74240	80.794487231941	0.25
7858	74597	81.093713273479	0.75
7858	74869	81.300727178425	0.75
7858	75440	81.700727178425	0.375
7858	76050	82.09832583646	0.625
7858	76056	82.103211112116	0.625
7858	76665	82.602125820959	0.5
7858	76906	82.802235820959	0.625
7858	77576	83.402235820959	0.25
7858	77793	83.603425038614	0.875
7858	78270	84.069102425511	0.25
7858	78404	84.187162805296	0.625
7858	78513	84.277943500309	0.875
7858	78682	84.387201526094	0.875
7858	79792	85.387201526094	-0.375
7858	80593	85.989072145634	0.25
7858	81054	86.363411049538	0.5
7858	81246	86.49728314849	0.375
7858	81310	86.564770586756	0.875
7858	81637	86.873981097005	0.75
7858	81662	86.893854422178	0.75
7858	81809	87.004656909598	0.5
7858	81994	87.18684510228	0.75
7858	82543	87.587040327298	0.625
7858	82699	87.70266152431	0
7858	83704	88.412751172215	0.125
7858	83971	88.612751172215	0.875
7858	84850	89.206480943787	0.75
7858	85131	89.414178488417	0
7858	85423	89.62355013369	0.875
7858	86742	90.527370157529	-0.5
7858	87242	90.927370157529	0.625
7858	88335	91.92996129206	-0.25
7858	88939	92.42996129206	0.5
7858	89631	92.939237126432	0.375
7858	90687	93.743701002069	0.5
7858	91041	94.045837621683	0.75
7858	91571	94.449740920035	0.625
7858	91584	94.450462249647	0.69999998807907
7858	91834	94.650472249647	0.875
7858	91845	94.6507128388	0.875
7858	91953	94.750047482581	0.75
7858	92068	94.839237126432	-1.75
7858	92217	94.962169960636	0.75
7858	92548	95.271274324492	0.625
7858	93691	96.171274324492	-0.25
7858	93989	96.375987457348	0.875
7858	94562	96.779658980168	0.5
7858	95163	97.279658980168	0.375
7858	96557	98.492556625004	-0.5
7858	97140	98.996137134507	0.5
7858	97812	99.60825887203	0.375
7858	98201	100.010282555276	0.625
7858	98227	100.062073215404	0.75
7858	98345	100.194108044302	0.375
7858	98628	100.400402133131	0.75
7858	99239	100.900402133131	0.5
7858	99804	101.403646811605	0.375
7858	100511	102.003646811605	0.125
7858	101037	102.404501541824	0.625
7858	101186	102.507086950403	0.625
7858	101544	102.811282613754	0.75
7858	101746	103.005319541072	0.375
7858	102001	103.213793527997	0.625
7858	102370	103.516887735229	0.625
7858	102735	103.820656350509	0.75
7858	103214	104.224162621773	0.625
7858	103971	104.831143372561	0.375
7858	104265	105.13983136223	0.75
7858	104938	105.742987285343	0.125
7858	106229	106.842987285343	-0.25
7858	106638	107.149507807803	0.75
7858	107221	107.575153003455	0.375
7858	107506	107.854847594902	0.25
7858	107680	107.982842376738	0.625
7858	108486	108.656615585486	0.125
7858	108772	108.961748506886	0.125
7858	108798	108.971472600009	0.75
7858	109150	109.274821526948	0.625
7858	110182	110.174821526948	0
7858	111247	110.976336651494	0.375
7858	112422	111.876336651494	-0.125
7858	112909	112.176446651494	0.625
7858	113484	112.676446651494	0.5
7858	114112	113.189193716256	0.5
7858	114620	113.597648111152	0.625
7858	115265	114.103394232366	-0.625
7858	115378	114.198912909546	0.375
7858	115410	114.212690638317	0.5
7858	115931	114.615490599293	0.5
7858	116374	115.015490599293	0.625
7858	116707	115.32510145945	0.625
7858	117193	115.82510145945	0.5
7858	117509	116.025166881272	0.875
7858	118016	116.525491763571	0.5
7858	118378	116.925756701581	0.625
7858	119236	117.731639361918	0
7858	119767	118.131639361918	0.5
7858	120413	118.741419520372	0.375
7858	120828	119.142447965397	0.625
7858	120969	119.254227328191	0.625
7858	121036	119.342847834474	0.875
7858	121431	119.651185552476	0.625
7858	121914	120.051185552476	0.625
7858	122520	120.56025303371	0.375
7858	123079	120.947354961816	0.125
7858	123433	121.174110631997	0.875
7858	123471	121.227170841703	0.75
7858	123530	121.261234612427	0.125
7858	124255	121.869105582711	0.25
7858	124450	122.069105582711	0.75
7858	125373	122.971926383777	0
7858	125763	123.281364519249	0.75
7858	126190	123.688873066124	0.625
7858	126419	123.876419133862	1
7858	126557	124.002950343381	0.625
7858	126686	124.107785687389	0.125
7858	126943	124.312279058302	0.75
7858	126946	124.316021472097	0.75
7858	126974	124.345492362906	1
7858	127336	124.647672698921	0.625
7858	127791	124.947672698921	0.75
7858	128051	125.165169075608	0.875
7858	128321	125.365279075608	0.75
7858	129309	126.165279075608	0.125
7858	129909	126.722328582542	0
7858	129956	126.767382992007	0.375
7858	130218	126.976473074341	0.75
7858	130394	127.183452747438	0.875
7858	131316	127.92199488668	0.75
7858	131906	128.42199488668	0.375
7858	132302	128.749257327412	0.75
7858	132538	129.012635551379	0.25
7858	132782	129.249697712923	0.5
7858	132883	129.313388168783	0.75
7858	133113	129.517321842551	0.875
7858	133354	129.756567273307	0.5
7858	133371	129.797351733247	0.375
7858	133421	129.805567883196	1
7858	134623	130.824804227804	0.75
7858	135425	131.524914227804	0.125
7858	136317	132.324914227804	0.125
7858	136655	132.625566294531	0.75
7858	136901	132.82662261059	0.75
7858	137111	133.032662894075	0.625
7858	137518	133.439337491934	0.625
7858	137602	133.532845380318	0.625
7858	137808	133.736257537046	-0.125
7859	396	20.50001	0.5
7859	776	21.10001	0.6
7859	1156	21.409972997515	0.3
7859	2010	22.113461152799	0.6
7859	2398	22.410946629952	1
7859	2738	22.615361069323	0.2
7859	3640	23.315361069323	0.7
7859	3865	23.515969449566	0.2
7859	4115	23.723506072906	0.2
7859	4435	24.025673364043	0.3
7859	4552	24.132456786569	0.4
7859	4940	24.435021669554	0.3
7859	5436	24.832183479954	0.2
7859	6146	25.434576623016	0.6
7859	6282	25.535021669554	1.1
7859	6853	25.94305555686	0.4
7859	7138	26.14305555686	0.2
7859	7923	26.750780214864	0.6
7859	8077	26.877512930719	0.7
7859	8617	27.380872600972	0.5
7859	9439	28.080872600972	0.7
7859	9457	28.086889510452	0
7859	10182	28.686889510452	0.6
7859	10396	28.888383640955	0.2
7859	10746	29.191443825793	0.3
7859	10927	29.363412489492	0.3
7859	11262	29.656559354435	0.5
7859	11560	29.901339634526	0.7
7859	11780	30.05761032501	0.4
7859	11817	30.063574109945	0.7
7859	11866	30.087873406402	0.7
7859	12480	30.596940651712	0.5
7859	13471	31.496940651712	0.9
7859	13846	31.802441680686	0.3
7859	14215	32.121866284342	0.3
7859	15274	32.826785704203	0.7
7859	15659	33.126785704203	0.3
7859	16460	33.833883204355	0.7
7859	16985	34.236743468592	0.4
7859	17151	34.396455712061	0.4
7859	17196	34.445112652833	0.2
7859	17426	34.64808013067	0.2
7859	18126	35.14808013067	0.5
7859	18964	35.75639741987	0.6
7859	19319	36.108063058018	0.6
7859	19696	36.361357858833	0.6
7859	19735	36.383225904854	0.4
7859	19964	36.563674314005	0.2
7859	20222	36.765928644747	0.2
7859	21782	37.971600955696	1.2
7859	21857	38.02393348971	1.1
7859	22206	38.325712360883	0.3
7859	22765	38.825712360883	0.5
7859	23360	39.233522318484	0.4
7859	23757	39.534660936071	0.3
7859	24055	39.836421488573	0.3
7859	24465	40.146118250752	0.3
7859	24789	40.419075613516	0.4
7859	25047	40.615838654787	0.4
7859	25407	40.855193522656	0.7
7859	26050	41.363401520059	0.5
7859	26790	41.963401520059	0.6
7859	27142	42.267054063463	0.3
7859	27636	42.684183733316	0.3
7859	27712	42.773636104841	0.5
7859	28545	43.474381528377	0.7
7859	29363	44.274381528377	0.8
7859	30236	44.975648756971	0.7
7859	30535	45.181671204567	0.2
7859	31430	45.886324261197	0.7
7859	32330	46.686324261197	0.8
7859	33126	47.29325669118	0.6
7859	33197	47.355261991457	0.6
7859	34196	48.264114974302	0.9
7859	34603	48.564114974302	0.3
7859	35190	49.066757267252	0.5
7859	35842	49.557365116694	0.5
7859	36634	50.164528468128	0.6
7859	37732	50.964528468128	0.8
7859	38016	51.174368613108	0.2
7859	39104	51.980427198628	0.8
7859	39250	52.080537198628	0.1
7859	39773	52.480537198628	0.4
7859	40291	52.881518446495	0.4
7859	40881	53.381818153431	0.5
7859	41979	54.181928153431	0.8
7859	42645	54.681928153431	0.5
7859	43106	55.089451006177	0.4
7859	43162	55.157595912867	0.4
7859	44145	55.957705912867	0.8
7859	45131	56.657705912867	0.7
7859	46679	57.67434753749	1
7859	47119	58.07434753749	0.4
7859	47951	58.684142059839	0.6
7859	47982	58.704953914688	0.6
7859	48444	59.109025005656	0.4
7859	48678	59.309404203452	0.2
7859	49532	60.009404203452	0.7
7859	50185	60.409514203452	0.4
7859	50611	60.709514203452	0.3
7859	51426	61.314953996435	0.6
7859	51638	61.433054740893	0.5
7859	52357	61.93572891047	0.5
7859	52411	61.949113723431	0.6
7859	52650	62.149849815171	0.2
7859	54694	63.849849815171	1.7
7859	55636	64.579574987401	0.5
7859	56131	65.050906491643	1.2
7859	56280	65.151016491643	0.1
7859	57070	65.751016491643	0.6
7859	57797	66.354022012711	0.6
7859	59785	68.055732476068	1.7
7859	60239	68.455732476068	0.4
7859	60535	68.759626102856	0.3
7859	60896	69.068938503129	0.3
7859	61229	69.369998896758	0.3
7859	61254	69.390859380801	0.3
7859	61941	69.998692742254	0.6
7859	62662	70.598692742254	0.6
7859	62845	70.727702667581	0.3
7859	63688	71.429186216577	0.7
7859	65016	72.629186216577	1.2
7859	65408	73.005725884218	0.7
7859	65823	73.339377690038	0.7
7859	66052	73.50775881176	0.5
7859	66437	73.811216081826	0.3
7859	66604	73.951028412229	0.2
7859	66840	74.120836178281	0.3
7859	67778	74.825849927122	0.7
7859	68623	75.625849927122	0.8
7859	68879	75.827044932968	0.2
7859	69099	76.033237598479	0.2
7859	69181	76.123609205163	0.5
7859	69523	76.442779021152	0.4
7859	69530	76.462072921683	0.4
7859	69639	76.531018184211	0.4
7859	69781	76.649805250294	0.2
7859	70053	76.942933288401	0.4
7859	70160	77.043043288401	0.1
7859	71223	77.943043288401	0.9
7859	71487	78.152774824645	0.2
7859	71876	78.452884824645	0.3
7859	72175	78.752884824645	0.3
7859	72681	79.258120359865	0.5
7859	73249	79.774780775108	0.5
7859	73388	79.88365559831	0.1
7859	73554	80.08365559831	0.2
7859	74232	80.785253882351	0.7
7859	74240	80.794487231941	0.7
7859	74597	81.093713273479	0.3
7859	74869	81.300727178425	0.2
7859	75440	81.700727178425	0.4
7859	76050	82.09832583646	0.2
7859	76056	82.103211112116	0.4
7859	76665	82.602125820959	0.5
7859	76906	82.802235820959	0.2
7859	77576	83.402235820959	0.6
7859	77793	83.603425038614	0.2
7859	78270	84.069102425511	0.7
7859	78404	84.187162805296	0.4
7859	78513	84.277943500309	0.2
7859	78682	84.387201526094	0.1
7859	79792	85.387201526094	1
7859	80593	85.989072145634	0.6
7859	81054	86.363411049538	0.5
7859	81246	86.49728314849	0.5
7859	81310	86.564770586756	0.2