version 2
run Stability-128-20130528-00:59:04-21385
attr configname Stability
attr datetime 20130528-00:59:04
attr experiment Stability
attr inifile omnetpp.ini
attr iterationvars $0=1e-6
attr iterationvars2 "$0=1e-6, $repetition=8"
attr measurement $0=1e-6
attr network Network
attr processid 21385
attr repetition 8
attr replication #8
attr resultdir results
attr runnumber 128
attr seedset 128

vector 12512  Network.churner  inGoingSizeSig:vector  ETV
vector 12437  Network.dyn_peer[7]  lookupHopsSig:vector  ETV
vector 12438  Network.dyn_peer[7]  lookupStabilitySig:vector  ETV
vector 12439  Network.dyn_peer[7]  lookupTimeSig:vector  ETV
vector 12458  Network.dyn_peer[14]  lookupHopsSig:vector  ETV
vector 12459  Network.dyn_peer[14]  lookupStabilitySig:vector  ETV
vector 12460  Network.dyn_peer[14]  lookupTimeSig:vector  ETV
vector 12416  Network.dyn_peer[0]  lookupHopsSig:vector  ETV
vector 12417  Network.dyn_peer[0]  lookupStabilitySig:vector  ETV
vector 12418  Network.dyn_peer[0]  lookupTimeSig:vector  ETV
vector 12431  Network.dyn_peer[5]  lookupHopsSig:vector  ETV
vector 12432  Network.dyn_peer[5]  lookupStabilitySig:vector  ETV
vector 12433  Network.dyn_peer[5]  lookupTimeSig:vector  ETV
vector 12443  Network.dyn_peer[9]  lookupHopsSig:vector  ETV
vector 12444  Network.dyn_peer[9]  lookupStabilitySig:vector  ETV
vector 12445  Network.dyn_peer[9]  lookupTimeSig:vector  ETV
vector 12446  Network.dyn_peer[10]  lookupHopsSig:vector  ETV
vector 12447  Network.dyn_peer[10]  lookupStabilitySig:vector  ETV
vector 12448  Network.dyn_peer[10]  lookupTimeSig:vector  ETV
vector 12452  Network.dyn_peer[12]  lookupHopsSig:vector  ETV
vector 12453  Network.dyn_peer[12]  lookupStabilitySig:vector  ETV
vector 12454  Network.dyn_peer[12]  lookupTimeSig:vector  ETV
vector 12464  Network.dyn_peer[16]  lookupHopsSig:vector  ETV
vector 12465  Network.dyn_peer[16]  lookupStabilitySig:vector  ETV
vector 12466  Network.dyn_peer[16]  lookupTimeSig:vector  ETV
vector 12476  Network.dyn_peer[20]  lookupHopsSig:vector  ETV
vector 12477  Network.dyn_peer[20]  lookupStabilitySig:vector  ETV
vector 12478  Network.dyn_peer[20]  lookupTimeSig:vector  ETV
vector 12482  Network.dyn_peer[22]  lookupHopsSig:vector  ETV
vector 12483  Network.dyn_peer[22]  lookupStabilitySig:vector  ETV
vector 12484  Network.dyn_peer[22]  lookupTimeSig:vector  ETV
vector 12488  Network.dyn_peer[24]  lookupHopsSig:vector  ETV
vector 12489  Network.dyn_peer[24]  lookupStabilitySig:vector  ETV
vector 12490  Network.dyn_peer[24]  lookupTimeSig:vector  ETV
vector 12422  Network.dyn_peer[2]  lookupHopsSig:vector  ETV
vector 12423  Network.dyn_peer[2]  lookupStabilitySig:vector  ETV
vector 12424  Network.dyn_peer[2]  lookupTimeSig:vector  ETV
vector 12425  Network.dyn_peer[3]  lookupHopsSig:vector  ETV
vector 12426  Network.dyn_peer[3]  lookupStabilitySig:vector  ETV
vector 12427  Network.dyn_peer[3]  lookupTimeSig:vector  ETV
vector 12428  Network.dyn_peer[4]  lookupHopsSig:vector  ETV
vector 12429  Network.dyn_peer[4]  lookupStabilitySig:vector  ETV
vector 12430  Network.dyn_peer[4]  lookupTimeSig:vector  ETV
vector 12449  Network.dyn_peer[11]  lookupHopsSig:vector  ETV
vector 12450  Network.dyn_peer[11]  lookupStabilitySig:vector  ETV
vector 12451  Network.dyn_peer[11]  lookupTimeSig:vector  ETV
vector 12461  Network.dyn_peer[15]  lookupHopsSig:vector  ETV
vector 12462  Network.dyn_peer[15]  lookupStabilitySig:vector  ETV
vector 12463  Network.dyn_peer[15]  lookupTimeSig:vector  ETV
vector 12470  Network.dyn_peer[18]  lookupHopsSig:vector  ETV
vector 12471  Network.dyn_peer[18]  lookupStabilitySig:vector  ETV
vector 12472  Network.dyn_peer[18]  lookupTimeSig:vector  ETV
vector 12491  Network.dyn_peer[25]  lookupHopsSig:vector  ETV
vector 12492  Network.dyn_peer[25]  lookupStabilitySig:vector  ETV
vector 12493  Network.dyn_peer[25]  lookupTimeSig:vector  ETV
vector 12497  Network.dyn_peer[27]  lookupHopsSig:vector  ETV
vector 12498  Network.dyn_peer[27]  lookupStabilitySig:vector  ETV
vector 12499  Network.dyn_peer[27]  lookupTimeSig:vector  ETV
vector 12500  Network.dyn_peer[28]  lookupHopsSig:vector  ETV
vector 12501  Network.dyn_peer[28]  lookupStabilitySig:vector  ETV
vector 12502  Network.dyn_peer[28]  lookupTimeSig:vector  ETV
vector 12419  Network.dyn_peer[1]  lookupHopsSig:vector  ETV
vector 12420  Network.dyn_peer[1]  lookupStabilitySig:vector  ETV
vector 12421  Network.dyn_peer[1]  lookupTimeSig:vector  ETV
vector 12434  Network.dyn_peer[6]  lookupHopsSig:vector  ETV
vector 12435  Network.dyn_peer[6]  lookupStabilitySig:vector  ETV
vector 12436  Network.dyn_peer[6]  lookupTimeSig:vector  ETV
vector 12455  Network.dyn_peer[13]  lookupHopsSig:vector  ETV
vector 12456  Network.dyn_peer[13]  lookupStabilitySig:vector  ETV
vector 12457  Network.dyn_peer[13]  lookupTimeSig:vector  ETV
vector 12479  Network.dyn_peer[21]  lookupHopsSig:vector  ETV
vector 12480  Network.dyn_peer[21]  lookupStabilitySig:vector  ETV
vector 12481  Network.dyn_peer[21]  lookupTimeSig:vector  ETV
vector 12485  Network.dyn_peer[23]  lookupHopsSig:vector  ETV
vector 12486  Network.dyn_peer[23]  lookupStabilitySig:vector  ETV
vector 12487  Network.dyn_peer[23]  lookupTimeSig:vector  ETV
vector 12503  Network.dyn_peer[29]  lookupHopsSig:vector  ETV
vector 12504  Network.dyn_peer[29]  lookupStabilitySig:vector  ETV
vector 12505  Network.dyn_peer[29]  lookupTimeSig:vector  ETV
vector 12440  Network.dyn_peer[8]  lookupHopsSig:vector  ETV
vector 12441  Network.dyn_peer[8]  lookupStabilitySig:vector  ETV
vector 12442  Network.dyn_peer[8]  lookupTimeSig:vector  ETV
vector 12473  Network.dyn_peer[19]  lookupHopsSig:vector  ETV
vector 12474  Network.dyn_peer[19]  lookupStabilitySig:vector  ETV
vector 12475  Network.dyn_peer[19]  lookupTimeSig:vector  ETV
vector 12494  Network.dyn_peer[26]  lookupHopsSig:vector  ETV
vector 12495  Network.dyn_peer[26]  lookupStabilitySig:vector  ETV
vector 12496  Network.dyn_peer[26]  lookupTimeSig:vector  ETV
vector 12506  Network.dyn_peer[30]  lookupHopsSig:vector  ETV
vector 12507  Network.dyn_peer[30]  lookupStabilitySig:vector  ETV
vector 12508  Network.dyn_peer[30]  lookupTimeSig:vector  ETV
vector 12467  Network.dyn_peer[17]  lookupHopsSig:vector  ETV
vector 12468  Network.dyn_peer[17]  lookupStabilitySig:vector  ETV
vector 12469  Network.dyn_peer[17]  lookupTimeSig:vector  ETV
vector 12509  Network.dyn_peer[31]  lookupHopsSig:vector  ETV
vector 12510  Network.dyn_peer[31]  lookupStabilitySig:vector  ETV
vector 12511  Network.dyn_peer[31]  lookupTimeSig:vector  ETV
12416	132	20.100000001	1
12416	397	20.500000001	3
12416	675	20.916381074949	3
12416	843	21.116481075949	2
12416	1412	21.616481075949	5
12416	2774	22.718853989721	10
12416	3025	22.921217463819	1
12416	3360	23.12591075517	2
12416	4214	23.82591075517	7
12416	4463	24.030027122241	1
12416	5157	24.71675486314	4
12416	5454	24.93570429352	10
12416	5617	25.045090776285	4
12416	6138	25.53643808503	5
12416	6151	25.540118965333	5
12416	6337	25.643653736553	2
12416	7491	26.543653736553	9
12416	8264	27.144711636364	6
12416	8750	27.544711636364	3
12416	9789	28.353298002636	8
12416	10172	28.665815313786	2
12416	10188	28.668727800844	0
12416	10793	29.168727800844	4
12416	11115	29.438461305118	2
12416	11527	29.738561306118	3
12416	11897	30.038561306118	2
12416	12438	30.440570982561	3
12416	12575	30.564593757874	6
12416	12801	30.771469998386	1
12416	13014	30.974841788845	2
12416	13827	31.683916627269	7
12416	14076	31.886681084109	1
12416	14116	31.916927490946	1
12416	14556	32.286749246229	4
12416	14597	32.318081087583	4
12416	14950	32.622895047195	2
12416	15097	32.787636521527	4
12416	15547	33.187736522527	5
12416	16214	33.787736522527	5
12416	16819	34.289039859296	4
12416	17461	34.807051263551	5
12416	18025	35.212849802056	4
12416	18741	35.812849802056	5
12416	20720	37.515809143087	17
12416	21348	38.021954451346	4
12416	21465	38.118382405978	4
12416	21731	38.327855861591	2
12416	21752	38.331922087676	3
12416	23591	39.935398633068	17
12416	24284	40.435398633068	4
12416	24616	40.745311118764	2
12416	24630	40.745411119764	0
12416	25093	41.145411119764	3
12416	26160	42.075269092714	3
12416	26794	42.675269092714	7
12416	27168	43.079319484142	3
12416	27342	43.189185672954	1
12416	27583	43.389185672954	2
12416	28231	43.897222705697	5
12416	28768	44.302763970202	3
12416	29146	44.612107008876	1
12416	29985	45.480433018881	7
12416	30039	45.519436839353	9
12416	30222	45.681094331872	1
12416	30253	45.710470973501	15
12416	30887	46.216600718032	5
12416	31163	46.416600718032	1
12416	31681	46.82237775094	3
12416	32027	47.132169732617	3
12416	33784	48.535569780656	16
12416	34262	49.035569780656	4
12416	35526	50.044286086688	9
12416	35965	50.4512581583	3
12416	37230	51.558424476671	11
12416	37325	51.632109561848	10
12416	37464	51.759449009522	1
12416	38165	52.33591119187	6
12416	39120	53.140677877091	8
12416	39450	53.440677877091	2
12416	39729	53.648199010949	1
12416	39891	53.782285192321	1
12416	40159	53.982626848516	2
12416	41419	54.982626848516	11
12416	41805	55.27566452291	5
12416	42196	55.592498679847	5
12416	42282	55.675733478797	3
12416	42528	55.879361927661	1
12416	42793	56.095922764715	4
12416	43494	56.699083749185	7
12416	44607	57.699083749185	9
12416	44855	57.90580023353	1
12416	45173	58.210140089246	2
12416	45193	58.217634970944	0
12416	45825	58.717634970944	4
12416	46146	58.962367236818	1
12416	47257	59.962637437209	11
12416	48248	60.662637437209	7
12416	48907	61.162949956336	4
12416	48924	61.170452206641	4
12416	49136	61.374198788603	1
12416	49150	61.376794482502	1
12416	49282	61.480817159587	1
12416	49587	61.780817159587	2
12416	49725	61.887824165086	1
12416	49912	62.087824165086	1
12416	50146	62.292603992014	1
12416	50655	62.792751403222	5
12416	50933	62.996255626196	2
12416	51340	63.296255626196	2
12416	51794	63.70002525204	3
12416	52213	64.10012525304	4
12416	53286	65.10012525304	10
12416	53806	65.606530562641	5
12416	54252	65.938974760701	5
12416	54309	66.014130277912	3
12416	54345	66.027967268056	3
12416	54520	66.128974784919	0
12416	55161	66.730579633162	5
12416	55272	66.823325389564	7
12416	55539	67.045589065784	12
12416	56556	67.954120251976	9
12416	57034	68.354120251976	3
12416	57406	68.655607543024	2
12416	57411	68.659452977426	2
12416	57765	68.865854758396	1
12416	57795	68.87419691427	1
12416	58064	69.079589013082	2
12416	58709	69.651794396284	1
12416	58838	69.779589013082	7
12416	59067	70.053529543177	4
12416	59373	70.35650302408	3
12416	59800	70.75650302408	3
12416	61427	72.164939779658	12
12416	61442	72.172774845716	13
12416	61965	72.574144298651	4
12416	63111	73.474144298651	8
12416	63642	73.878319643098	4
12416	63813	74.015566065106	4
12416	63831	74.027295920079	4
12416	63974	74.130014742479	1
12416	64325	74.433323056761	2
12416	64503	74.610191680841	2
12416	64861	74.918871789117	3
12416	65660	75.618871789117	6
12416	66153	76.018971790117	4
12416	66628	76.418971790117	4
12416	67250	76.85344736223	3
12416	67518	77.058830150774	2
12416	67576	77.122736542022	8
12416	67810	77.32671534124	1
12416	67883	77.364614912544	2
12416	68104	77.568102537089	2
12416	68448	77.868102537089	2
12416	68686	78.069835750218	1
12416	69483	78.774674747594	6
12416	69500	78.781456230741	6
12416	69801	79.089828840025	2
12416	69803	79.090067720697	2
12416	70165	79.390167721697	3
12416	70926	80.090167721697	6
12416	71668	80.62533786218	4
12416	71839	80.731681150164	1
12416	72080	80.931681150164	1
12416	72230	81.036398325082	1
12416	72673	81.440145306719	3
12416	73484	82.144720091864	9
12416	73487	82.145035151526	7
12416	74202	82.75359889812	6
12416	74833	83.25359889812	4
12416	75331	83.65942141084	4
12416	75894	84.05942141084	3
12416	76313	84.463725409705	3
12416	76324	84.469392074041	3
12416	76561	84.670985412357	2
12416	76572	84.678366938766	2
12416	76760	84.853871936311	2
12416	76798	84.879483520843	1
12416	76810	84.887798381673	1
12416	76948	84.987898382673	1
12416	77192	85.187898382673	1
12416	77588	85.508630498544	2
12416	78421	86.108630498544	5
12416	78884	86.518315835933	3
12416	78933	86.569990263143	3
12416	79098	86.708380173881	9
12416	79485	87.012258973037	3
12416	79900	87.412258973037	4
12416	80633	88.018179956263	5
12416	81008	88.325720967273	2
12416	81136	88.41106207125	5
12416	81274	88.512696236723	1
12416	82196	89.212696236723	6
12416	83156	90.018397968422	8
12416	83608	90.323293458798	3
12416	83990	90.623293458798	3
12416	84788	91.227356085995	5
12416	85061	91.462694315562	9
12416	85212	91.581931724174	10
12416	85345	91.685732339536	1
12416	86067	92.285732339536	5
12416	86880	92.987769615642	7
12416	87061	93.184861727586	6
12416	87492	93.496330728115	5
12416	87585	93.584961727586	5
12416	88442	94.28658633032	8
12416	89378	95.08658633032	8
12416	89876	95.491860252422	3
12416	90317	95.895695865338	4
12416	90931	96.395695865338	4
12416	91065	96.498470432107	1
12416	91322	96.698470432107	1
12416	92281	97.499919385001	5
12416	92383	97.598648781504	9
12416	92479	97.712376788129	2
12416	92585	97.813962223541	1
12416	92768	98.013962223541	1
12416	93236	98.414062224541	5
12416	93497	98.614062224541	1
12416	93790	98.8144780881	1
12416	93864	98.845711017906	1
12416	94061	99.001205058663	1
12416	94198	99.101382999583	1
12416	94833	99.601382999583	4
12416	95271	100.012713002492	3
12416	95468	100.160788651502	3
12416	95665	100.369422566876	1
12416	96111	100.778487982262	3
12416	96215	100.913848896838	8
12416	96603	101.215155222343	4
12416	97344	101.915155222343	6
12416	97915	102.416751601439	4
12416	98174	102.674124873482	5
12416	99164	103.567186196769	7
12416	99663	103.967186196769	3
12416	100292	104.51205516933	2
12416	100805	104.91215517033	4
12416	101203	105.21215517033	2
12416	101456	105.417133969274	1
12416	102094	105.926474802941	4
12416	102151	105.992647552165	5
12416	102650	106.331904518466	3
12416	102713	106.393762619379	4
12416	103384	106.90140459244	7
12416	104038	107.439800087374	1
12416	104090	107.495292868834	1
12416	104226	107.605374653205	7
12416	105453	108.713613156631	13
12416	105682	108.913613156631	1
12416	106223	109.315495503818	3
12416	106333	109.405243553974	2
12416	106930	109.923739119966	5
12416	107082	110.029251599713	1
12416	107474	110.330458390252	2
12416	107901	110.630558391252	3
12416	108833	111.350319193765	5
12416	108933	111.430558391252	7
12416	109065	111.532595401087	1
12416	109938	112.232595401087	6
12416	110697	112.932695402087	7
12416	111494	113.632695402087	6
12416	111524	113.642733359785	0
12416	111773	113.842733359785	1
12416	112058	114.050642567167	2
12416	112987	114.850642567167	7
12416	113268	115.06237161424	1
12416	113965	115.676504449334	5
12416	115091	116.878173348089	12
12416	115555	117.278173348089	3
12416	115700	117.384557938779	1
12416	116170	117.784557938779	3
12416	116408	117.990621397878	2
12416	117430	118.895929169211	9
12416	117864	119.253605969674	3
12416	118578	119.853705970674	7
12416	119531	120.653705970674	7
12416	120212	121.163558103941	4
12416	120527	121.398202299836	1
12416	120913	121.707023525665	3
12416	121032	121.80693411992	3
12416	121358	122.10703412092	3
12416	121639	122.40703412092	2
12416	121881	122.607354322147	1
12416	122093	122.811657473299	2
12416	122297	123.010002550388	3
12416	122588	123.311860555865	2
12416	122627	123.367338054824	11
12416	123280	123.873291154082	6
12416	123664	124.173291154082	2
12416	124084	124.575160168958	3
12416	124834	125.175260169958	6
12416	125394	125.675260169958	4
12416	125863	126.075749719706	3
12416	125884	126.092380813447	3
12416	126071	126.292480814447	2
12416	126280	126.492480814447	1
12416	126403	126.593433347127	1
12416	126783	126.996969006021	3
12416	126875	127.049102977421	4
12416	127137	127.249372634185	2
12416	127355	127.449372634185	1
12416	127918	127.8569820215	3
12416	127921	127.857146086056	3
12416	128010	127.969469555944	2
12416	128438	128.271586186651	3
12416	129044	128.771586186651	5
12416	129986	129.422883845164	7
12416	130417	129.722883845164	2
12416	130802	130.026423715349	2
12416	130952	130.14853159374	4
12416	131181	130.335469836425	2
12416	131504	130.64212208566	2
12416	132185	131.24222208666	7
12416	132680	131.64222208666	3
12416	133040	131.946818150799	3
12416	133366	132.156333660078	1
12416	133643	132.381402159412	4
12416	133784	132.519421181711	4
12416	133853	132.565264309924	4
12416	134261	132.868634728869	3
12416	134801	133.368634728869	4
12416	136307	134.577107072883	12
12416	136918	135.277107072883	7
12416	137055	135.582901080693	2
12416	137151	135.888935377411	2
12417	132	20.100000001	0.875
12417	397	20.500000001	0.625
12417	675	20.916381074949	0.625
12417	843	21.116481075949	0.75
12417	1412	21.616481075949	0.375
12417	2774	22.718853989721	-0.25
12417	3025	22.921217463819	0.875
12417	3360	23.12591075517	0.75
12417	4214	23.82591075517	0.125
12417	4463	24.030027122241	0.875
12417	5157	24.71675486314	0.5
12417	5454	24.93570429352	-0.25
12417	5617	25.045090776285	0.5
12417	6138	25.53643808503	0.375
12417	6151	25.540118965333	0.375
12417	6337	25.643653736553	0.75
12417	7491	26.543653736553	-0.125
12417	8264	27.144711636364	0.25
12417	8750	27.544711636364	0.625
12417	9789	28.353298002636	0
12417	10172	28.665815313786	0.75
12417	10188	28.668727800844	1
12417	10793	29.168727800844	0.5
12417	11115	29.438461305118	0.75
12417	11527	29.738561306118	0.625
12417	11897	30.038561306118	0.75
12417	12438	30.440570982561	0.625
12417	12575	30.564593757874	0.25
12417	12801	30.771469998386	0.875
12417	13014	30.974841788845	0.75
12417	13827	31.683916627269	0.125
12417	14076	31.886681084109	0.875
12417	14116	31.916927490946	0.875
12417	14556	32.286749246229	0.5
12417	14597	32.318081087583	0.5
12417	14950	32.622895047195	0.75
12417	15097	32.787636521527	0.5
12417	15547	33.187736522527	0.375
12417	16214	33.787736522527	0.375
12417	16819	34.289039859296	0.5
12417	17461	34.807051263551	0.375
12417	18025	35.212849802056	0.5
12417	18741	35.812849802056	0.375
12417	20720	37.515809143087	-1.125
12417	21348	38.021954451346	0.5
12417	21465	38.118382405978	0.5
12417	21731	38.327855861591	0.75
12417	21752	38.331922087676	0.625
12417	23591	39.935398633068	-1.125
12417	24284	40.435398633068	0.5
12417	24616	40.745311118764	0.75
12417	24630	40.745411119764	1
12417	25093	41.145411119764	0.625
12417	26160	42.075269092714	0.625
12417	26794	42.675269092714	0.125
12417	27168	43.079319484142	0.625
12417	27342	43.189185672954	0.875
12417	27583	43.389185672954	0.75
12417	28231	43.897222705697	0.375
12417	28768	44.302763970202	0.625
12417	29146	44.612107008876	0.875
12417	29985	45.480433018881	0.125
12417	30039	45.519436839353	-0.125
12417	30222	45.681094331872	0.875
12417	30253	45.710470973501	-0.875
12417	30887	46.216600718032	0.375
12417	31163	46.416600718032	0.875
12417	31681	46.82237775094	0.625
12417	32027	47.132169732617	0.625
12417	33784	48.535569780656	-1
12417	34262	49.035569780656	0.5
12417	35526	50.044286086688	-0.125
12417	35965	50.4512581583	0.625
12417	37230	51.558424476671	-0.375
12417	37325	51.632109561848	-0.25
12417	37464	51.759449009522	0.875
12417	38165	52.33591119187	0.25
12417	39120	53.140677877091	0
12417	39450	53.440677877091	0.75
12417	39729	53.648199010949	0.875
12417	39891	53.782285192321	0.875
12417	40159	53.982626848516	0.75
12417	41419	54.982626848516	-0.375
12417	41805	55.27566452291	0.375
12417	42196	55.592498679847	0.375
12417	42282	55.675733478797	0.625
12417	42528	55.879361927661	0.875
12417	42793	56.095922764715	0.5
12417	43494	56.699083749185	0.125
12417	44607	57.699083749185	-0.125
12417	44855	57.90580023353	0.875
12417	45173	58.210140089246	0.75
12417	45193	58.217634970944	1
12417	45825	58.717634970944	0.5
12417	46146	58.962367236818	0.875
12417	47257	59.962637437209	-0.375
12417	48248	60.662637437209	0.125
12417	48907	61.162949956336	0.5
12417	48924	61.170452206641	0.5
12417	49136	61.374198788603	0.875
12417	49150	61.376794482502	0.875
12417	49282	61.480817159587	0.875
12417	49587	61.780817159587	0.75
12417	49725	61.887824165086	0.875
12417	49912	62.087824165086	0.875
12417	50146	62.292603992014	0.875
12417	50655	62.792751403222	0.375
12417	50933	62.996255626196	0.75
12417	51340	63.296255626196	0.75
12417	51794	63.70002525204	0.625
12417	52213	64.10012525304	0.5
12417	53286	65.10012525304	-0.25
12417	53806	65.606530562641	0.375
12417	54252	65.938974760701	0.375
12417	54309	66.014130277912	0.625
12417	54345	66.027967268056	0.625
12417	54520	66.128974784919	1
12417	55161	66.730579633162	0.375
12417	55272	66.823325389564	0.125
12417	55539	67.045589065784	-0.5
12417	56556	67.954120251976	-0.125
12417	57034	68.354120251976	0.625
12417	57406	68.655607543024	0.75
12417	57411	68.659452977426	0.75
12417	57765	68.865854758396	0.875
12417	57795	68.87419691427	0.875
12417	58064	69.079589013082	0.75
12417	58709	69.651794396284	0.875
12417	58838	69.779589013082	0.125
12417	59067	70.053529543177	0.5
12417	59373	70.35650302408	0.625
12417	59800	70.75650302408	0.625
12417	61427	72.164939779658	-0.5
12417	61442	72.172774845716	-0.625
12417	61965	72.574144298651	0.5
12417	63111	73.474144298651	0
12417	63642	73.878319643098	0.5
12417	63813	74.015566065106	0.5
12417	63831	74.027295920079	0.5
12417	63974	74.130014742479	0.875
12417	64325	74.433323056761	0.75
12417	64503	74.610191680841	0.75
12417	64861	74.918871789117	0.625
12417	65660	75.618871789117	0.25
12417	66153	76.018971790117	0.5
12417	66628	76.418971790117	0.5
12417	67250	76.85344736223	0.625
12417	67518	77.058830150774	0.75
12417	67576	77.122736542022	0
12417	67810	77.32671534124	0.875
12417	67883	77.364614912544	0.75
12417	68104	77.568102537089	0.75
12417	68448	77.868102537089	0.75
12417	68686	78.069835750218	0.875
12417	69483	78.774674747594	0.25
12417	69500	78.781456230741	0.25
12417	69801	79.089828840025	0.75
12417	69803	79.090067720697	0.75
12417	70165	79.390167721697	0.625
12417	70926	80.090167721697	0.25
12417	71668	80.62533786218	0.5
12417	71839	80.731681150164	0.875
12417	72080	80.931681150164	0.875
12417	72230	81.036398325082	0.875
12417	72673	81.440145306719	0.625
12417	73484	82.144720091864	-0.125
12417	73487	82.145035151526	0.125
12417	74202	82.75359889812	0.25
12417	74833	83.25359889812	0.5
12417	75331	83.65942141084	0.5
12417	75894	84.05942141084	0.625
12417	76313	84.463725409705	0.625
12417	76324	84.469392074041	0.625
12417	76561	84.670985412357	0.75
12417	76572	84.678366938766	0.75
12417	76760	84.853871936311	0.75
12417	76798	84.879483520843	0.875
12417	76810	84.887798381673	0.875
12417	76948	84.987898382673	0.875
12417	77192	85.187898382673	0.875
12417	77588	85.508630498544	0.75
12417	78421	86.108630498544	0.375
12417	78884	86.518315835933	0.625
12417	78933	86.569990263143	0.625
12417	79098	86.708380173881	-0.125
12417	79485	87.012258973037	0.625
12417	79900	87.412258973037	0.5
12417	80633	88.018179956263	0.375
12417	81008	88.325720967273	0.75
12417	81136	88.41106207125	0.375
12417	81274	88.512696236723	0.875
12417	82196	89.212696236723	0.25
12417	83156	90.018397968422	0
12417	83608	90.323293458798	0.625
12417	83990	90.623293458798	0.625
12417	84788	91.227356085995	0.375
12417	85061	91.462694315562	-0.125
12417	85212	91.581931724174	-0.25
12417	85345	91.685732339536	0.875
12417	86067	92.285732339536	0.375
12417	86880	92.987769615642	0.125
12417	87061	93.184861727586	0.25
12417	87492	93.496330728115	0.375
12417	87585	93.584961727586	0.375
12417	88442	94.28658633032	0
12417	89378	95.08658633032	0
12417	89876	95.491860252422	0.625
12417	90317	95.895695865338	0.5
12417	90931	96.395695865338	0.5
12417	91065	96.498470432107	0.875
12417	91322	96.698470432107	0.875
12417	92281	97.499919385001	0.375
12417	92383	97.598648781504	-0.125
12417	92479	97.712376788129	0.75
12417	92585	97.813962223541	0.875
12417	92768	98.013962223541	0.875
12417	93236	98.414062224541	0.375
12417	93497	98.614062224541	0.875
12417	93790	98.8144780881	0.875
12417	93864	98.845711017906	0.875
12417	94061	99.001205058663	0.875
12417	94198	99.101382999583	0.875
12417	94833	99.601382999583	0.5
12417	95271	100.012713002492	0.625
12417	95468	100.160788651502	0.625
12417	95665	100.369422566876	0.875
12417	96111	100.778487982262	0.625
12417	96215	100.913848896838	0
12417	96603	101.215155222343	0.5
12417	97344	101.915155222343	0.25
12417	97915	102.416751601439	0.5
12417	98174	102.674124873482	0.375
12417	99164	103.567186196769	0.125
12417	99663	103.967186196769	0.625
12417	100292	104.51205516933	0.75
12417	100805	104.91215517033	0.5
12417	101203	105.21215517033	0.75
12417	101456	105.417133969274	0.875
12417	102094	105.926474802941	0.5
12417	102151	105.992647552165	0.375
12417	102650	106.331904518466	0.625
12417	102713	106.393762619379	0.5
12417	103384	106.90140459244	0.125
12417	104038	107.439800087374	0.875
12417	104090	107.495292868834	0.875
12417	104226	107.605374653205	0.125
12417	105453	108.713613156631	-0.625
12417	105682	108.913613156631	0.875
12417	106223	109.315495503818	0.625
12417	106333	109.405243553974	0.75
12417	106930	109.923739119966	0.375
12417	107082	110.029251599713	0.875
12417	107474	110.330458390252	0.75
12417	107901	110.630558391252	0.625
12417	108833	111.350319193765	0.375
12417	108933	111.430558391252	0.125
12417	109065	111.532595401087	0.875
12417	109938	112.232595401087	0.25
12417	110697	112.932695402087	0.125
12417	111494	113.632695402087	0.25
12417	111524	113.642733359785	1
12417	111773	113.842733359785	0.875
12417	112058	114.050642567167	0.75
12417	112987	114.850642567167	0.125
12417	113268	115.06237161424	0.875
12417	113965	115.676504449334	0.375
12417	115091	116.878173348089	-0.5
12417	115555	117.278173348089	0.625
12417	115700	117.384557938779	0.875
12417	116170	117.784557938779	0.625
12417	116408	117.990621397878	0.75
12417	117430	118.895929169211	-0.125
12417	117864	119.253605969674	0.625
12417	118578	119.853705970674	0.125
12417	119531	120.653705970674	0.125
12417	120212	121.163558103941	0.5
12417	120527	121.398202299836	0.875
12417	120913	121.707023525665	0.625
12417	121032	121.80693411992	0.625
12417	121358	122.10703412092	0.625
12417	121639	122.40703412092	0.75
12417	121881	122.607354322147	0.875
12417	122093	122.811657473299	0.75
12417	122297	123.010002550388	0.625
12417	122588	123.311860555865	0.75
12417	122627	123.367338054824	-0.375
12417	123280	123.873291154082	0.25
12417	123664	124.173291154082	0.75
12417	124084	124.575160168958	0.625
12417	124834	125.175260169958	0.25
12417	125394	125.675260169958	0.5
12417	125863	126.075749719706	0.625
12417	125884	126.092380813447	0.625
12417	126071	126.292480814447	0.75
12417	126280	126.492480814447	0.875
12417	126403	126.593433347127	0.875
12417	126783	126.996969006021	0.625
12417	126875	127.049102977421	0.5
12417	127137	127.249372634185	0.75
12417	127355	127.449372634185	0.875
12417	127918	127.8569820215	0.625
12417	127921	127.857146086056	0.625
12417	128010	127.969469555944	0.75
12417	128438	128.271586186651	0.625
12417	129044	128.771586186651	0.375
12417	129986	129.422883845164	0.125
12417	130417	129.722883845164	0.75
12417	130802	130.026423715349	0.75
12417	130952	130.14853159374	0.5
12417	131181	130.335469836425	0.75
12417	131504	130.64212208566	0.75
12417	132185	131.24222208666	0.125
12417	132680	131.64222208666	0.625
12417	133040	131.946818150799	0.625
12417	133366	132.156333660078	0.875
12417	133643	132.381402159412	0.5
12417	133784	132.519421181711	0.5
12417	133853	132.565264309924	0.5
12417	134261	132.868634728869	0.625
12417	134801	133.368634728869	0.5
12417	136307	134.577107072883	-0.5
12417	136918	135.277107072883	0.125
12417	137055	135.582901080693	0.75
12417	137151	135.888935377411	0.75
12418	132	20.100000001	0.1
12418	397	20.500000001	0.4
12418	675	20.916381074949	0.4
12418	843	21.116481075949	0.2
12418	1412	21.616481075949	0.5
12418	2774	22.718853989721	1.1
12418	3025	22.921217463819	0.2
12418	3360	23.12591075517	0.2
12418	4214	23.82591075517	0.7
12418	4463	24.030027122241	0.2
12418	5157	24.71675486314	0.5
12418	5454	24.93570429352	0.9
12418	5617	25.045090776285	0.5
12418	6138	25.53643808503	0.6
12418	6151	25.540118965333	0.6
12418	6337	25.643653736553	0.1
12418	7491	26.543653736553	0.9
12418	8264	27.144711636364	0.6
12418	8750	27.544711636364	0.4
12418	9789	28.353298002636	0.8
12418	10172	28.665815313786	0.3
12418	10188	28.668727800844	0
12418	10793	29.168727800844	0.5
12418	11115	29.438461305118	0.3
12418	11527	29.738561306118	0.3
12418	11897	30.038561306118	0.3
12418	12438	30.440570982561	0.4
12418	12575	30.564593757874	0.6
12418	12801	30.771469998386	0.2
12418	13014	30.974841788845	0.2
12418	13827	31.683916627269	0.7
12418	14076	31.886681084109	0.2
12418	14116	31.916927490946	0.2
12418	14556	32.286749246229	0.4
12418	14597	32.318081087583	0.4
12418	14950	32.622895047195	0.3
12418	15097	32.787636521527	0.5
12418	15547	33.187736522527	0.4
12418	16214	33.787736522527	0.6
12418	16819	34.289039859296	0.5
12418	17461	34.807051263551	0.5
12418	18025	35.212849802056	0.4
12418	18741	35.812849802056	0.6
12418	20720	37.515809143087	1.7
12418	21348	38.021954451346	0.5
12418	21465	38.118382405978	0.5
12418	21731	38.327855861591	0.2
12418	21752	38.331922087676	0.3
12418	23591	39.935398633068	1.6
12418	24284	40.435398633068	0.5
12418	24616	40.745311118764	0.3
12418	24630	40.745411119764	0
12418	25093	41.145411119764	0.4
12418	26160	42.075269092714	0.3
12418	26794	42.675269092714	0.6
12418	27168	43.079319484142	0.4
12418	27342	43.189185672954	0.1
12418	27583	43.389185672954	0.2
12418	28231	43.897222705697	0.5
12418	28768	44.302763970202	0.4
12418	29146	44.612107008876	0.2
12418	29985	45.480433018881	0.8
12418	30039	45.519436839353	0.9
12418	30222	45.681094331872	0.2
12418	30253	45.710470973501	1.4
12418	30887	46.216600718032	0.5
12418	31163	46.416600718032	0.2
12418	31681	46.82237775094	0.4
12418	32027	47.132169732617	0.3
12418	33784	48.535569780656	1.4
12418	34262	49.035569780656	0.5
12418	35526	50.044286086688	1
12418	35965	50.4512581583	0.4
12418	37230	51.558424476671	1.1
12418	37325	51.632109561848	1
12418	37464	51.759449009522	0.2
12418	38165	52.33591119187	0.7
12418	39120	53.140677877091	0.8
12418	39450	53.440677877091	0.3
12418	39729	53.648199010949	0.2
12418	39891	53.782285192321	0.2
12418	40159	53.982626848516	0.2
12418	41419	54.982626848516	1
12418	41805	55.27566452291	0.6