file 1057648 1369933135                                         
version 2
run Stability-105-20130528-00:57:22-21385
attr configname Stability
attr datetime 20130528-00:57:22
attr experiment Stability
attr inifile omnetpp.ini
attr iterationvars $0=1e-4
attr iterationvars2 "$0=1e-4, $repetition=5"
attr measurement $0=1e-4
attr network Network
attr processid 21385
attr repetition 5
attr replication #5
attr resultdir results
attr runnumber 105
attr seedset 105
vector 10281  Network.churner  inGoingSizeSig:vector  ETV
10281	929320 128328 23 138689 20 135.195993953393 4097 0 31 125741 3880781
vector 10194  Network.dyn_peer[3]  lookupHopsSig:vector  ETV
10194	93900 10173 39 138450 20.0000004 134.405560670123 335 0 21 1318 8500
vector 10195  Network.dyn_peer[3]  lookupStabilitySig:vector  ETV
10195	104073 11261 39 138450 20.0000004 134.405560670123 335 -1.625 1 170.26388888806 138.33699845532
vector 10196  Network.dyn_peer[3]  lookupTimeSig:vector  ETV
10196	115334 10792 39 138450 20.0000004 134.405560670123 335 0 1.9 149.4 93.56
vector 10200  Network.dyn_peer[5]  lookupHopsSig:vector  ETV
10200	154200 9478 49 137521 20.0000006 133.418568723574 312 0 15 1219 7213
vector 10201  Network.dyn_peer[5]  lookupStabilitySig:vector  ETV
10201	163678 10499 49 137521 20.0000006 133.418568723574 312 -0.875 1 159.65277777612 119.99556326903
vector 10202  Network.dyn_peer[5]  lookupTimeSig:vector  ETV
10202	174177 10068 49 137521 20.0000006 133.418568723574 312 0 1.4 137.8 81.24
vector 10224  Network.dyn_peer[13]  lookupHopsSig:vector  ETV
10224	384291 8972 77 138596 20.0000014 134.630734557558 295 0 21 1261 8453
vector 10225  Network.dyn_peer[13]  lookupStabilitySig:vector  ETV
10225	393263 9935 77 138596 20.0000014 134.630734557558 295 -1.625 1 137.375 111.828125
vector 10226  Network.dyn_peer[13]  lookupTimeSig:vector  ETV
10226	403198 9524 77 138596 20.0000014 134.630734557558 295 0 1.8 139.1 89.29
vector 10233  Network.dyn_peer[16]  lookupHopsSig:vector  ETV
10233	469286 9380 90 138001 20.0000017 133.917001406405 309 0 30 1342 9632
vector 10234  Network.dyn_peer[16]  lookupStabilitySig:vector  ETV
10234	478666 10350 90 138001 20.0000017 133.917001406405 309 -2.75 1 141.25 124
vector 10235  Network.dyn_peer[16]  lookupTimeSig:vector  ETV
10235	489016 9950 90 138001 20.0000017 133.917001406405 309 0 2.8 148.4 102.44
vector 10257  Network.dyn_peer[24]  lookupHopsSig:vector  ETV
10257	696743 8990 118 138345 20.0000025 134.24295956025 296 0 15 1172 7272
vector 10258  Network.dyn_peer[24]  lookupStabilitySig:vector  ETV
10258	705733 9942 118 138345 20.0000025 134.24295956025 296 -0.875 1 149.5 116.625
vector 10259  Network.dyn_peer[24]  lookupTimeSig:vector  ETV
10259	715675 9527 118 138345 20.0000025 134.24295956025 296 0 1.4 132.2 80.44
vector 10269  Network.dyn_peer[28]  lookupHopsSig:vector  ETV
10269	811220 8895 134 138495 20.0000029 134.429598520852 292 0 23 1263 8715
vector 10270  Network.dyn_peer[28]  lookupStabilitySig:vector  ETV
10270	820115 9850 134 138495 20.0000029 134.429598520852 292 -1.875 1 134.18055555224 112.48051697163
vector 10271  Network.dyn_peer[28]  lookupTimeSig:vector  ETV
10271	829965 9441 134 138495 20.0000029 134.429598520852 292 0 2.1 139 92.84
vector 10185  Network.dyn_peer[0]  lookupHopsSig:vector  ETV
10185	6538 9521 150 137280 20.1000001 133.232305032216 313 0 22 1202 7292
vector 10186  Network.dyn_peer[0]  lookupStabilitySig:vector  ETV
10186	16059 10572 150 137280 20.1000001 133.232305032216 313 -1.75 1 162.8749999851 126.59239967186
vector 10187  Network.dyn_peer[0]  lookupTimeSig:vector  ETV
10187	26631 10123 150 137280 20.1000001 133.232305032216 313 0 2 136.5 81.23
vector 10191  Network.dyn_peer[2]  lookupHopsSig:vector  ETV
10191	67497 8333 156 138687 20.1000003 135.188091771381 274 0 22 1160 8078
vector 10192  Network.dyn_peer[2]  lookupStabilitySig:vector  ETV
10192	75830 9234 156 138687 20.1000003 135.188091771381 274 -1.75 1 129.04166665673 110.2725694312
vector 10193  Network.dyn_peer[2]  lookupTimeSig:vector  ETV
10193	85064 8836 156 138687 20.1000003 135.188091771381 274 0 2 128.4 84.02
vector 10206  Network.dyn_peer[7]  lookupHopsSig:vector  ETV
10206	216840 8385 164 137355 20.1000008 133.309751226319 275 0 22 1262 8956
vector 10207  Network.dyn_peer[7]  lookupStabilitySig:vector  ETV
10207	225225 9243 164 137355 20.1000008 133.309751226319 275 -1.75 1 117.25 99.4375
vector 10208  Network.dyn_peer[7]  lookupTimeSig:vector  ETV
10208	234468 8893 164 137355 20.1000008 133.309751226319 275 0 1.9 137.7 93.13
vector 10209  Network.dyn_peer[8]  lookupHopsSig:vector  ETV
10209	243361 9100 169 138306 20.1000009 134.222275062446 298 0 17 1286 8820
vector 10210  Network.dyn_peer[8]  lookupStabilitySig:vector  ETV
10210	252461 10121 169 138306 20.1000009 134.222275062446 298 -1.125 1 137.34722220898 114.42496140283
vector 10211  Network.dyn_peer[8]  lookupTimeSig:vector  ETV
10211	262582 9653 169 138306 20.1000009 134.222275062446 298 0 1.6 141.5 93.13
vector 10212  Network.dyn_peer[9]  lookupHopsSig:vector  ETV
10212	272235 8278 174 137373 20.100001 133.312466549397 271 0 26 1375 10629
vector 10213  Network.dyn_peer[9]  lookupStabilitySig:vector  ETV
10213	280513 9162 174 137373 20.100001 133.312466549397 271 -2.25 1 99.166666664183 93.395061724348
vector 10214  Network.dyn_peer[9]  lookupTimeSig:vector  ETV
10214	289675 8764 174 137373 20.100001 133.312466549397 271 0 2.3 148.6 109.5
vector 10218  Network.dyn_peer[11]  lookupHopsSig:vector  ETV
10218	325937 9249 180 137066 20.1000012 133.025851103637 304 0 16 1231 7475
vector 10219  Network.dyn_peer[11]  lookupStabilitySig:vector  ETV
10219	335186 10274 180 137066 20.1000012 133.025851103637 304 -1 1 150.23611109704 113.10513116548
vector 10220  Network.dyn_peer[11]  lookupTimeSig:vector  ETV
10220	345460 9832 180 137066 20.1000012 133.025851103637 304 0 1.5 138.4 83.46
vector 10245  Network.dyn_peer[20]  lookupHopsSig:vector  ETV
10245	584144 8295 193 138397 20.1000021 134.318335380549 273 0 25 1258 9602
vector 10246  Network.dyn_peer[20]  lookupStabilitySig:vector  ETV
10246	592439 9223 193 138397 20.1000021 134.318335380549 273 -2.125 1 116.08333328366 108.73881167468
vector 10247  Network.dyn_peer[20]  lookupTimeSig:vector  ETV
10247	601662 8781 193 138397 20.1000021 134.318335380549 273 0 2.3 138.5 100.95
vector 10251  Network.dyn_peer[22]  lookupHopsSig:vector  ETV
10251	638805 8461 199 137367 20.1000023 133.311407986477 278 0 20 1252 8528
vector 10252  Network.dyn_peer[22]  lookupStabilitySig:vector  ETV
10252	647266 9389 199 137367 20.1000023 133.311407986477 278 -1.5 1 121.58333330601 98.331404295968
vector 10253  Network.dyn_peer[22]  lookupTimeSig:vector  ETV
10253	656655 8977 199 137367 20.1000023 133.311407986477 278 0 1.9 136.6 90.3
vector 10197  Network.dyn_peer[4]  lookupHopsSig:vector  ETV
10197	126126 8856 220 138152 20.2000005 134.047833717318 291 0 25 1291 8945
vector 10198  Network.dyn_peer[4]  lookupStabilitySig:vector  ETV
10198	134982 9820 220 138152 20.2000005 134.047833717318 291 -2.125 1 129.68055555224 108.07426697163
vector 10199  Network.dyn_peer[4]  lookupTimeSig:vector  ETV
10199	144802 9398 220 138152 20.2000005 134.047833717318 291 0 2.3 143.3 96.71
vector 10215  Network.dyn_peer[10]  lookupHopsSig:vector  ETV
10215	298439 8688 230 138115 20.2000011 134.028347856607 286 0 21 1208 8768
vector 10216  Network.dyn_peer[10]  lookupStabilitySig:vector  ETV
10216	307127 9602 230 138115 20.2000011 134.028347856607 286 -1.625 1 135 121
vector 10217  Network.dyn_peer[10]  lookupTimeSig:vector  ETV
10217	316729 9208 230 138115 20.2000011 134.028347856607 286 0 1.9 133.1 91.57
vector 10221  Network.dyn_peer[12]  lookupHopsSig:vector  ETV
10221	355292 9141 236 137437 20.2000013 133.350848390702 301 0 28 1286 9078
vector 10222  Network.dyn_peer[12]  lookupStabilitySig:vector  ETV
10222	364433 10169 236 137437 20.2000013 133.350848390702 301 -2.5 1 140.45833327621 121.54070210825
vector 10223  Network.dyn_peer[12]  lookupTimeSig:vector  ETV
10223	374602 9689 236 137437 20.2000013 133.350848390702 301 0 2.5 143.1 96.55
vector 10227  Network.dyn_peer[14]  lookupHopsSig:vector  ETV
10227	412722 9159 242 137327 20.2000015 133.301081980979 301 0 23 1272 8494
vector 10228  Network.dyn_peer[14]  lookupStabilitySig:vector  ETV
10228	421881 10138 242 137327 20.2000015 133.301081980979 301 -1.875 1 142 115.71875
vector 10229  Network.dyn_peer[14]  lookupTimeSig:vector  ETV
10229	432019 9731 242 137327 20.2000015 133.301081980979 301 0 2.2 142.9 93.99
vector 10236  Network.dyn_peer[17]  lookupHopsSig:vector  ETV
10236	498966 9302 249 138358 20.2000018 134.247933717318 306 0 26 1284 8524
vector 10237  Network.dyn_peer[17]  lookupStabilitySig:vector  ETV
10237	508268 10288 249 138358 20.2000018 134.247933717318 306 -2.25 1 145.5 118.1875
vector 10238  Network.dyn_peer[17]  lookupTimeSig:vector  ETV
10238	518556 9884 249 138358 20.2000018 134.247933717318 306 0 2.2 144.5 93.19
vector 10254  Network.dyn_peer[23]  lookupHopsSig:vector  ETV
10254	665632 9805 259 137108 20.2000024 133.067195906402 323 0 21 1278 7920
vector 10255  Network.dyn_peer[23]  lookupStabilitySig:vector  ETV
10255	675437 10891 259 137108 20.2000024 133.067195906402 323 -1.625 1 163.29166665673 127.3038194312
vector 10256  Network.dyn_peer[23]  lookupTimeSig:vector  ETV
10256	686328 10415 259 137108 20.2000024 133.067195906402 323 0 1.8 144.5 87.11
vector 10275  Network.dyn_peer[30]  lookupHopsSig:vector  ETV
10275	868762 9544 269 138657 20.2000031 134.884405837199 314 0 17 1251 7615
vector 10276  Network.dyn_peer[30]  lookupStabilitySig:vector  ETV
10276	878306 10591 269 138657 20.2000031 134.884405837199 314 -1.125 1 157.69444441795 120.29128084065
vector 10277  Network.dyn_peer[30]  lookupTimeSig:vector  ETV
10277	888897 10133 269 138657 20.2000031 134.884405837199 314 0 1.5 140.6 84.4
vector 10188  Network.dyn_peer[1]  lookupHopsSig:vector  ETV
10188	36754 9705 284 138175 20.3000002 134.105419833808 318 0 19 1312 8626
vector 10189  Network.dyn_peer[1]  lookupStabilitySig:vector  ETV
10189	46459 10747 284 138175 20.3000002 134.105419833808 318 -1.375 1 154 124.78125
vector 10190  Network.dyn_peer[1]  lookupTimeSig:vector  ETV
10190	57206 10291 284 138175 20.3000002 134.105419833808 318 0 1.8 147.1 95.11
vector 10203  Network.dyn_peer[6]  lookupHopsSig:vector  ETV
10203	184245 10268 293 138253 20.3000007 134.141017953 338 0 16 1264 6910
vector 10204  Network.dyn_peer[6]  lookupStabilitySig:vector  ETV
10204	194513 11416 293 138253 20.3000007 134.141017953 338 -1 1 180.29166661203 130.21431322267
vector 10205  Network.dyn_peer[6]  lookupTimeSig:vector  ETV
10205	205929 10911 293 138253 20.3000007 134.141017953 338 0 1.5 144.7 80.93
vector 10230  Network.dyn_peer[15]  lookupHopsSig:vector  ETV
10230	441750 8691 307 137741 20.3000016 133.624007897014 285 0 21 1212 8412
vector 10231  Network.dyn_peer[15]  lookupStabilitySig:vector  ETV
10231	450441 9633 307 137741 20.3000016 133.624007897014 285 -1.625 1 133.5 113.4375
vector 10232  Network.dyn_peer[15]  lookupTimeSig:vector  ETV
10232	460074 9212 307 137741 20.3000016 133.624007897014 285 0 1.7 134.2 88.92
vector 10239  Network.dyn_peer[18]  lookupHopsSig:vector  ETV
10239	528440 8612 314 138138 20.3000019 134.042419067756 283 0 19 1193 7951
vector 10240  Network.dyn_peer[18]  lookupStabilitySig:vector  ETV
10240	537052 9556 314 138138 20.3000019 134.042419067756 283 -1.375 1 133.94444441795 109.04128084065
vector 10241  Network.dyn_peer[18]  lookupTimeSig:vector  ETV
10241	546608 9141 314 138138 20.3000019 134.042419067756 283 0 1.7 132.9 85.53
vector 10248  Network.dyn_peer[21]  lookupHopsSig:vector  ETV
10248	610443 8944 321 138671 20.3000022 135.032138869005 294 0 16 1302 8956
vector 10249  Network.dyn_peer[21]  lookupStabilitySig:vector  ETV
10249	619387 9916 321 138671 20.3000022 135.032138869005 294 -1 1 131.33333331347 108.48611109787
vector 10250  Network.dyn_peer[21]  lookupTimeSig:vector  ETV
10250	629303 9502 321 138671 20.3000022 135.032138869005 294 0 1.4 144.7 96.15
vector 10260  Network.dyn_peer[25]  lookupHopsSig:vector  ETV
10260	725202 9766 327 137528 20.3000026 133.421215599568 320 0 24 1312 8806
vector 10261  Network.dyn_peer[25]  lookupStabilitySig:vector  ETV
10261	734968 10810 327 137528 20.3000026 133.421215599568 320 -2 1 156.1249999702 129.70929781228
vector 10262  Network.dyn_peer[25]  lookupTimeSig:vector  ETV
10262	745778 10361 327 137528 20.3000026 133.421215599568 320 0 2.2 146.6 94.62
vector 10278  Network.dyn_peer[31]  lookupHopsSig:vector  ETV
10278	899030 9548 338 138228 20.3000032 134.128347856607 314 0 21 1235 7749
vector 10279  Network.dyn_peer[31]  lookupStabilitySig:vector  ETV
10279	908578 10609 338 138228 20.3000032 134.128347856607 314 -1.625 1 159.76388885826 126.49440583403
vector 10280  Network.dyn_peer[31]  lookupTimeSig:vector  ETV
10280	919187 10133 338 138228 20.3000032 134.128347856607 314 0 1.8 138.7 83.91
vector 10242  Network.dyn_peer[19]  lookupHopsSig:vector  ETV
10242	555749 8958 375 137981 20.400002 133.905319833808 295 0 22 1193 7687
vector 10243  Network.dyn_peer[19]  lookupStabilitySig:vector  ETV
10243	564707 9929 375 137981 20.400002 133.905319833808 295 -1.75 1 145.875 116.859375
vector 10244  Network.dyn_peer[19]  lookupTimeSig:vector  ETV
10244	574636 9508 375 137981 20.400002 133.905319833808 295 0 1.9 132.9 81.45
vector 10263  Network.dyn_peer[26]  lookupHopsSig:vector  ETV
10263	756139 8613 385 137050 20.4000027 133.019613263862 284 0 23 1296 9106
vector 10264  Network.dyn_peer[26]  lookupStabilitySig:vector  ETV
10264	764752 9557 385 137050 20.4000027 133.019613263862 284 -1.875 1 122.16666664183 102.41126541039
vector 10265  Network.dyn_peer[26]  lookupTimeSig:vector  ETV
10265	774309 9136 385 137050 20.4000027 133.019613263862 284 0 2 143 96.64
vector 10272  Network.dyn_peer[29]  lookupHopsSig:vector  ETV
10272	839406 9272 391 138492 20.400003 134.428447856607 304 0 20 1284 8644
vector 10273  Network.dyn_peer[29]  lookupStabilitySig:vector  ETV
10273	848678 10245 391 138492 20.400003 134.428447856607 304 -1.5 1 143.5 118.0625
vector 10274  Network.dyn_peer[29]  lookupTimeSig:vector  ETV
10274	858923 9839 391 138492 20.400003 134.428447856607 304 0 1.7 144.2 93.96
vector 10266  Network.dyn_peer[27]  lookupHopsSig:vector  ETV
10266	783445 8755 434 137889 20.5000028 133.810944512563 288 0 21 1225 7889
vector 10267  Network.dyn_peer[27]  lookupStabilitySig:vector  ETV
10267	792200 9719 434 137889 20.5000028 133.810944512563 288 -1.625 1 134.95833332837 105.11670524066
vector 10268  Network.dyn_peer[27]  lookupTimeSig:vector  ETV
10268	801919 9301 434 137889 20.5000028 133.810944512563 288 0 1.9 136.7 85.91
