version 2
run Stability-147-20130528-01:00:31-21385
attr configname Stability
attr datetime 20130528-01:00:31
attr experiment Stability
attr inifile omnetpp.ini
attr iterationvars $0=1e-8
attr iterationvars2 "$0=1e-8, $repetition=7"
attr measurement $0=1e-8
attr network Network
attr processid 21385
attr repetition 7
attr replication #7
attr resultdir results
attr runnumber 147
attr seedset 147

vector 14355  Network.churner  inGoingSizeSig:vector  ETV
vector 14295  Network.dyn_peer[12]  lookupHopsSig:vector  ETV
vector 14296  Network.dyn_peer[12]  lookupStabilitySig:vector  ETV
vector 14297  Network.dyn_peer[12]  lookupTimeSig:vector  ETV
vector 14307  Network.dyn_peer[16]  lookupHopsSig:vector  ETV
vector 14308  Network.dyn_peer[16]  lookupStabilitySig:vector  ETV
vector 14309  Network.dyn_peer[16]  lookupTimeSig:vector  ETV
vector 14277  Network.dyn_peer[6]  lookupHopsSig:vector  ETV
vector 14278  Network.dyn_peer[6]  lookupStabilitySig:vector  ETV
vector 14279  Network.dyn_peer[6]  lookupTimeSig:vector  ETV
vector 14286  Network.dyn_peer[9]  lookupHopsSig:vector  ETV
vector 14287  Network.dyn_peer[9]  lookupStabilitySig:vector  ETV
vector 14288  Network.dyn_peer[9]  lookupTimeSig:vector  ETV
vector 14289  Network.dyn_peer[10]  lookupHopsSig:vector  ETV
vector 14290  Network.dyn_peer[10]  lookupStabilitySig:vector  ETV
vector 14291  Network.dyn_peer[10]  lookupTimeSig:vector  ETV
vector 14304  Network.dyn_peer[15]  lookupHopsSig:vector  ETV
vector 14305  Network.dyn_peer[15]  lookupStabilitySig:vector  ETV
vector 14306  Network.dyn_peer[15]  lookupTimeSig:vector  ETV
vector 14310  Network.dyn_peer[17]  lookupHopsSig:vector  ETV
vector 14311  Network.dyn_peer[17]  lookupStabilitySig:vector  ETV
vector 14312  Network.dyn_peer[17]  lookupTimeSig:vector  ETV
vector 14337  Network.dyn_peer[26]  lookupHopsSig:vector  ETV
vector 14338  Network.dyn_peer[26]  lookupStabilitySig:vector  ETV
vector 14339  Network.dyn_peer[26]  lookupTimeSig:vector  ETV
vector 14340  Network.dyn_peer[27]  lookupHopsSig:vector  ETV
vector 14341  Network.dyn_peer[27]  lookupStabilitySig:vector  ETV
vector 14342  Network.dyn_peer[27]  lookupTimeSig:vector  ETV
vector 14346  Network.dyn_peer[29]  lookupHopsSig:vector  ETV
vector 14347  Network.dyn_peer[29]  lookupStabilitySig:vector  ETV
vector 14348  Network.dyn_peer[29]  lookupTimeSig:vector  ETV
vector 14349  Network.dyn_peer[30]  lookupHopsSig:vector  ETV
vector 14350  Network.dyn_peer[30]  lookupStabilitySig:vector  ETV
vector 14351  Network.dyn_peer[30]  lookupTimeSig:vector  ETV
vector 14259  Network.dyn_peer[0]  lookupHopsSig:vector  ETV
vector 14260  Network.dyn_peer[0]  lookupStabilitySig:vector  ETV
vector 14261  Network.dyn_peer[0]  lookupTimeSig:vector  ETV
vector 14262  Network.dyn_peer[1]  lookupHopsSig:vector  ETV
vector 14263  Network.dyn_peer[1]  lookupStabilitySig:vector  ETV
vector 14264  Network.dyn_peer[1]  lookupTimeSig:vector  ETV
vector 14292  Network.dyn_peer[11]  lookupHopsSig:vector  ETV
vector 14293  Network.dyn_peer[11]  lookupStabilitySig:vector  ETV
vector 14294  Network.dyn_peer[11]  lookupTimeSig:vector  ETV
vector 14301  Network.dyn_peer[14]  lookupHopsSig:vector  ETV
vector 14302  Network.dyn_peer[14]  lookupStabilitySig:vector  ETV
vector 14303  Network.dyn_peer[14]  lookupTimeSig:vector  ETV
vector 14322  Network.dyn_peer[21]  lookupHopsSig:vector  ETV
vector 14323  Network.dyn_peer[21]  lookupStabilitySig:vector  ETV
vector 14324  Network.dyn_peer[21]  lookupTimeSig:vector  ETV
vector 14325  Network.dyn_peer[22]  lookupHopsSig:vector  ETV
vector 14326  Network.dyn_peer[22]  lookupStabilitySig:vector  ETV
vector 14327  Network.dyn_peer[22]  lookupTimeSig:vector  ETV
vector 14352  Network.dyn_peer[31]  lookupHopsSig:vector  ETV
vector 14353  Network.dyn_peer[31]  lookupStabilitySig:vector  ETV
vector 14354  Network.dyn_peer[31]  lookupTimeSig:vector  ETV
vector 14271  Network.dyn_peer[4]  lookupHopsSig:vector  ETV
vector 14272  Network.dyn_peer[4]  lookupStabilitySig:vector  ETV
vector 14273  Network.dyn_peer[4]  lookupTimeSig:vector  ETV
vector 14313  Network.dyn_peer[18]  lookupHopsSig:vector  ETV
vector 14314  Network.dyn_peer[18]  lookupStabilitySig:vector  ETV
vector 14315  Network.dyn_peer[18]  lookupTimeSig:vector  ETV
vector 14316  Network.dyn_peer[19]  lookupHopsSig:vector  ETV
vector 14317  Network.dyn_peer[19]  lookupStabilitySig:vector  ETV
vector 14318  Network.dyn_peer[19]  lookupTimeSig:vector  ETV
vector 14319  Network.dyn_peer[20]  lookupHopsSig:vector  ETV
vector 14320  Network.dyn_peer[20]  lookupStabilitySig:vector  ETV
vector 14321  Network.dyn_peer[20]  lookupTimeSig:vector  ETV
vector 14331  Network.dyn_peer[24]  lookupHopsSig:vector  ETV
vector 14332  Network.dyn_peer[24]  lookupStabilitySig:vector  ETV
vector 14333  Network.dyn_peer[24]  lookupTimeSig:vector  ETV
vector 14334  Network.dyn_peer[25]  lookupHopsSig:vector  ETV
vector 14335  Network.dyn_peer[25]  lookupStabilitySig:vector  ETV
vector 14336  Network.dyn_peer[25]  lookupTimeSig:vector  ETV
vector 14265  Network.dyn_peer[2]  lookupHopsSig:vector  ETV
vector 14266  Network.dyn_peer[2]  lookupStabilitySig:vector  ETV
vector 14267  Network.dyn_peer[2]  lookupTimeSig:vector  ETV
vector 14283  Network.dyn_peer[8]  lookupHopsSig:vector  ETV
vector 14284  Network.dyn_peer[8]  lookupStabilitySig:vector  ETV
vector 14285  Network.dyn_peer[8]  lookupTimeSig:vector  ETV
vector 14298  Network.dyn_peer[13]  lookupHopsSig:vector  ETV
vector 14299  Network.dyn_peer[13]  lookupStabilitySig:vector  ETV
vector 14300  Network.dyn_peer[13]  lookupTimeSig:vector  ETV
vector 14328  Network.dyn_peer[23]  lookupHopsSig:vector  ETV
vector 14329  Network.dyn_peer[23]  lookupStabilitySig:vector  ETV
vector 14330  Network.dyn_peer[23]  lookupTimeSig:vector  ETV
vector 14268  Network.dyn_peer[3]  lookupHopsSig:vector  ETV
vector 14269  Network.dyn_peer[3]  lookupStabilitySig:vector  ETV
vector 14270  Network.dyn_peer[3]  lookupTimeSig:vector  ETV
vector 14343  Network.dyn_peer[28]  lookupHopsSig:vector  ETV
vector 14344  Network.dyn_peer[28]  lookupStabilitySig:vector  ETV
vector 14345  Network.dyn_peer[28]  lookupTimeSig:vector  ETV
vector 14274  Network.dyn_peer[5]  lookupHopsSig:vector  ETV
vector 14275  Network.dyn_peer[5]  lookupStabilitySig:vector  ETV
vector 14276  Network.dyn_peer[5]  lookupTimeSig:vector  ETV
vector 14280  Network.dyn_peer[7]  lookupHopsSig:vector  ETV
vector 14281  Network.dyn_peer[7]  lookupStabilitySig:vector  ETV
vector 14282  Network.dyn_peer[7]  lookupTimeSig:vector  ETV
14259	200	20.20000000001	2
14259	326	20.40000000001	1
14259	527	20.706386759733	2
14259	1125	21.406486759743	8
14259	1698	21.82825521636	2
14259	2338	22.32835521637	5
14259	3123	22.92835521637	5
14259	4041	23.547406688757	5
14259	4415	23.918902768696	3
14259	4515	23.955002153791	3
14259	4639	24.061554402339	1
14259	4886	24.261554402339	1
14259	5355	24.668641941626	3
14259	6010	25.26895211748	6
14259	6769	25.86895211748	6
14259	7593	26.581176140941	6
14259	7677	26.654738686292	3
14259	8052	26.960043171797	2
14259	8099	26.988507678072	3
14259	9457	27.991398162251	10
14259	10043	28.491398162251	4
14259	11697	29.899059141607	16
14259	12231	30.299059141607	4
14259	12548	30.57133527722	2
14259	12798	30.77143527723	2
14259	13083	30.97143527723	1
14259	14041	31.779336106051	7
14259	15055	32.600400522441	3
14259	15995	33.300500522451	8
14259	16504	33.700500522451	3
14259	16750	33.907532869656	1
14259	16941	34.015271386972	1
14259	18216	35.015271386972	10
14259	18463	35.220931706153	1
14259	19210	35.721031706163	8
14259	19746	36.121031706163	3
14259	20183	36.426742933406	2
14259	20679	36.828035426003	3
14259	21044	37.144679632983	2
14259	21809	37.846922130876	7
14259	22759	38.546922130876	6
14259	23586	39.157364511493	6
14259	25248	40.457991972543	12
14259	26044	41.120882200581	6
14259	26274	41.322204017085	5
14259	26282	41.323878958833	1
14259	26534	41.530163687558	1
14259	26541	41.533142393964	1
14259	26854	41.742090748864	2
14259	27092	41.942771193472	1
14259	27449	42.243728011342	2
14259	27732	42.443828011352	2
14259	28378	43.043828011352	5
14259	29772	44.455723293854	16
14259	30117	44.761822574618	3
14259	30601	45.161822574618	3
14259	30994	45.465553042292	2
14259	31432	45.811921900817	4
14259	31858	46.118248213374	3
14259	31877	46.120919788793	3
14259	32074	46.269411622717	10
14259	32367	46.47471185911	2
14259	33250	47.206684492134	5
14259	34014	47.906684492134	8
14259	34741	48.508802593172	5
14259	35643	49.309426729028	7
14259	36162	49.815686721048	4
14259	36452	50.125325337749	2
14259	37209	50.749297052776	8
14259	37282	50.82561791423	8
14259	37656	51.153710188209	3
14259	37886	51.357752222994	2
14259	38931	52.257752222994	10
14259	39304	52.557852223004	4
14259	39995	53.057852223004	5
14259	40916	53.658675002004	6
14259	40963	53.678502223531	2
14259	41391	53.959837405576	2
14259	41599	54.089423620958	3
14259	42059	54.498349325115	3
14259	42100	54.516138229441	4
14259	42394	54.723398442109	2
14259	43693	55.723398442109	11
14259	44094	56.125335314023	4
14259	44279	56.280069432505	2
14259	44676	56.581644371277	2
14259	44875	56.726082179114	6
14259	44890	56.732102029373	6
14259	45176	56.932499074845	1
14259	45180	56.932873780043	1
14259	45768	57.432973780053	5
14259	45985	57.632973780053	1
14259	46472	58.142880443267	4
14259	46782	58.445414830595	2
14259	47590	59.12878831183	5
14259	47760	59.253148267005	10
14259	47846	59.333306904796	1
14259	47983	59.436967285769	1
14259	48331	59.736967285769	2
14259	49495	60.644074620181	11
14259	50157	61.244074620181	5
14259	51008	62.04663271995	9
14259	51261	62.251208631023	1
14259	51395	62.366974372613	1
14259	51921	62.856489192607	5
14259	52058	62.979950448083	5
14259	53375	64.083097492067	12
14259	53936	64.583097492067	5
14259	54463	65.100135234795	4
14259	54743	65.31474372433	1
14259	55131	65.61742006643	3
14259	55496	65.91742006643	2
14259	55698	66.11752006644	2
14259	56281	66.71752006644	6
14259	56750	67.122767046264	3
14259	57535	67.92559903888	8
14259	57771	68.132297618672	1
14259	57870	68.237885240718	9
14259	58034	68.434193136516	2
14259	58048	68.441506129495	1
14259	58161	68.542784259709	1
14259	58648	69.042784259709	4
14259	59419	69.765110909634	7
14259	59832	70.142921485322	10
14259	59850	70.149293213564	10
14259	59889	70.168840410744	3
14259	59987	70.25509340363	4
14259	60190	70.460901037155	1
14259	60319	70.565017469165	1
14259	60806	70.965017469165	3
14259	60838	70.973453408939	0
14259	61116	71.173453408939	1
14259	61383	71.384022484177	1
14259	61421	71.449970532118	2
14259	61929	71.766346919295	2
14259	62132	71.893445828014	1
14259	62213	71.972553256508	1
14259	62886	72.572834749764	6
14259	63274	72.972834749764	3
14259	63717	73.37520674699	4
14259	64058	73.67520674699	2
14259	64946	74.480128598555	9
14259	65341	74.790101560658	2
14259	66102	75.505870343694	6
14259	66329	75.716913445635	1
14259	66508	75.824346403674	1
14259	67084	76.324346403674	4
14259	67627	76.732567712041	3
14259	67656	76.78029670827	4
14259	67968	77.039195100828	2
14259	68003	77.096390336629	2
14259	68121	77.202402859485	6
14259	68159	77.224602707112	2
14259	68456	77.503107740083	3
14259	68458	77.503475406133	3
14259	68490	77.531710203378	2
14259	68813	77.834149853072	3
14259	69675	78.634149853072	7
14259	70317	79.240952972226	5
14259	70616	79.441052972236	2
14259	71010	79.741052972236	2
14259	71440	80.143560844073	3
14259	71937	80.550739403359	3
14259	72293	80.825118592431	1
14259	72356	80.85569792084	2
14259	72584	81.0574675617	2
14259	73348	81.696046229999	1
14259	73653	81.899300946288	2
14259	74039	82.199300946288	2
14259	74461	82.50871262167	2
14259	75083	83.009679130573	4
14259	75259	83.140532384373	4
14259	75479	83.31917535865	2
14259	75641	83.463860692961	2
14259	75697	83.523781665412	1
14259	76037	83.770006445429	2
14259	76098	83.833013492325	3
14259	76215	83.95315807595	6
14259	76662	84.357802372559	4
14259	77846	85.257802372559	9
14259	78179	85.482644819458	6
14259	78451	85.688605012979	2
14259	78681	85.888605012979	1
14259	78713	85.89712484453	0
14259	79202	86.29712484453	3
14259	79538	86.498611818085	2
14259	80426	87.198611818085	7
14259	81140	87.804980687097	5
14259	81555	88.112230422675	3
14259	82882	89.292825475663	10
14259	82994	89.405363616306	0
14259	83215	89.608110724054	1
14259	83674	90.008950971157	3
14259	83892	90.209050971167	2
14259	84519	90.709050971167	4
14259	85106	91.113399339872	5
14259	85888	91.713399339872	5
14259	86842	92.46561156943	3
14259	87321	92.86561156943	3
14259	87584	93.075093515254	1
14259	88193	93.682798833648	5
14259	88727	94.192189533287	4
14259	89110	94.502054526196	3
14259	90039	95.302054526196	7
14259	90397	95.593461741411	2
14259	90936	95.998726523282	3
14259	91088	96.104217016694	8
14259	91364	96.31051793398	1
14259	91714	96.587944582475	2
14259	91849	96.705629671843	2
14259	94023	98.611066730582	22
14259	94753	99.211066730582	5
14259	95449	99.721035019106	4
14259	96250	100.426820773575	7
14259	96436	100.529517249839	1
14259	97067	101.129517249839	5
14259	97741	101.651239314832	6
14259	97973	101.853922269797	3
14259	98540	102.352352725124	2
14259	98552	102.353922269797	5
14259	99400	103.079331054973	3
14259	99553	103.187907008747	1
14259	100244	103.793762690247	5
14259	100987	104.394159044377	5
14259	101283	104.658955693842	4
14259	101630	104.967663543956	2
14259	101699	104.998306522784	5
14259	101942	105.207819620901	1
14259	102335	105.507919620911	3
14259	103143	106.107919620911	6
14259	103531	106.430254873509	2
14259	103851	106.730884904685	3
14259	104331	107.115895278364	10
14259	104374	107.172126379881	5
14259	104459	107.237783759737	5
14259	104776	107.447501874834	3
14259	105112	107.747501874834	2
14259	105742	108.347601874844	6
14259	106364	108.847601874844	4
14259	106529	108.99298527205	4
14259	106551	109.016602430001	4
14259	106584	109.054335119475	2
14259	106953	109.325541103358	2
14259	106989	109.363234035493	2
14259	107892	109.966703707261	6
14259	108743	110.566703707261	5
14259	109340	111.045104609181	2
14259	109835	111.504970249117	3
14259	109939	111.546367524995	5
14259	110069	111.675667636163	12
14259	110901	112.375810455828	7
14259	111298	112.675810455828	3
14259	112243	113.474452821077	6
14259	112267	113.48444416785	8
14259	112767	113.884782162137	4
14259	113255	114.284782162137	3
14259	113950	114.797648970853	5
14259	114057	114.897748970863	1
14259	114562	115.297748970863	3
14259	115092	115.798496429148	4
14259	115357	116.004853420852	1
14259	116715	117.21632048625	12
14259	117048	117.523796256929	2
14259	117422	117.833832463831	3
14259	118112	118.333832463831	5
14259	118377	118.538444765812	1
14259	118745	118.845818505923	2
14259	119076	119.150002169651	2
14259	119289	119.330619809158	2
14259	119323	119.354042806047	1
14259	119675	119.648283688785	2
14259	119855	119.775871718067	16
14259	119935	119.848348878457	1
14259	120054	119.958363088326	5
14259	120344	120.159964436426	2
14259	120764	120.559964436426	3
14259	121760	121.366004792641	9
14259	122305	121.769421158799	3
14259	122886	122.173994453859	4
14259	123313	122.475214782548	2
14259	123772	122.821554271544	1
14259	123837	122.888593594847	3
14259	124400	123.392383336861	5
14259	125264	124.092383336861	6
14259	126147	124.823428715995	6
14259	126230	124.902005264375	9
14259	126714	125.310855766889	4
14259	127423	125.910855766889	7
14259	127900	126.302408451735	6
14259	128146	126.519767392147	6
14259	129071	127.224295135319	8
14259	129812	127.724295135319	5
14259	130388	128.338027618573	5
14259	131118	129.138127618583	9
14259	132114	130.038127618583	8
14259	132610	130.446002480603	3
14259	133218	130.948444288956	6
14259	133224	130.950969363383	6
14259	133347	131.058118892426	5
14259	133739	131.358410016871	4
14259	134192	131.758410016871	3
14259	134418	131.972771585179	4
14259	135165	132.678856224439	7
14259	136030	133.378856224439	7
14259	136148	133.525343100327	3
14259	136211	133.582607700173	1
14260	200	20.20000000001	0.75
14260	326	20.40000000001	0.875
14260	527	20.706386759733	0.75
14260	1125	21.406486759743	0
14260	1698	21.82825521636	0.75
14260	2338	22.32835521637	0.375
14260	3123	22.92835521637	0.375
14260	4041	23.547406688757	0.375
14260	4415	23.918902768696	0.625
14260	4515	23.955002153791	0.625
14260	4639	24.061554402339	0.875
14260	4886	24.261554402339	0.875
14260	5355	24.668641941626	0.625
14260	6010	25.26895211748	0.25
14260	6769	25.86895211748	0.25
14260	7593	26.581176140941	0.25
14260	7677	26.654738686292	0.625
14260	8052	26.960043171797	0.75
14260	8099	26.988507678072	0.625
14260	9457	27.991398162251	-0.25
14260	10043	28.491398162251	0.5
14260	11697	29.899059141607	-1
14260	12231	30.299059141607	0.5
14260	12548	30.57133527722	0.75
14260	12798	30.77143527723	0.75
14260	13083	30.97143527723	0.875
14260	14041	31.779336106051	0.125
14260	15055	32.600400522441	0.625
14260	15995	33.300500522451	0.11111110448837
14260	16504	33.700500522451	0.625
14260	16750	33.907532869656	0.875
14260	16941	34.015271386972	0.875
14260	18216	35.015271386972	-0.25
14260	18463	35.220931706153	0.875
14260	19210	35.721031706163	0
14260	19746	36.121031706163	0.625
14260	20183	36.426742933406	0.75
14260	20679	36.828035426003	0.625
14260	21044	37.144679632983	0.75
14260	21809	37.846922130876	0.125
14260	22759	38.546922130876	0.25
14260	23586	39.157364511493	0.25
14260	25248	40.457991972543	-0.5
14260	26044	41.120882200581	0.25
14260	26274	41.322204017085	0.375
14260	26282	41.323878958833	0.875
14260	26534	41.530163687558	0.875
14260	26541	41.533142393964	0.875
14260	26854	41.742090748864	0.75
14260	27092	41.942771193472	0.875
14260	27449	42.243728011342	0.75
14260	27732	42.443828011352	0.75
14260	28378	43.043828011352	0.375
14260	29772	44.455723293854	-1
14260	30117	44.761822574618	0.625
14260	30601	45.161822574618	0.625
14260	30994	45.465553042292	0.75
14260	31432	45.811921900817	0.5
14260	31858	46.118248213374	0.625
14260	31877	46.120919788793	0.625
14260	32074	46.269411622717	-0.25
14260	32367	46.47471185911	0.75
14260	33250	47.206684492134	0.375
14260	34014	47.906684492134	0
14260	34741	48.508802593172	0.375
14260	35643	49.309426729028	0.125
14260	36162	49.815686721048	0.5
14260	36452	50.125325337749	0.75
14260	37209	50.749297052776	0
14260	37282	50.82561791423	0
14260	37656	51.153710188209	0.625
14260	37886	51.357752222994	0.75
14260	38931	52.257752222994	-0.25
14260	39304	52.557852223004	0.5
14260	39995	53.057852223004	0.375
14260	40916	53.658675002004	0.25
14260	40963	53.678502223531	0.75
14260	41391	53.959837405576	0.75
14260	41599	54.089423620958	0.625
14260	42059	54.498349325115	0.625
14260	42100	54.516138229441	0.5
14260	42394	54.723398442109	0.75
14260	43693	55.723398442109	-0.375
14260	44094	56.125335314023	0.5
14260	44279	56.280069432505	0.75
14260	44676	56.581644371277	0.75
14260	44875	56.726082179114	0.25
14260	44890	56.732102029373	0.25
14260	45176	56.932499074845	0.875
14260	45180	56.932873780043	0.875
14260	45768	57.432973780053	0.375
14260	45985	57.632973780053	0.875
14260	46472	58.142880443267	0.5
14260	46782	58.445414830595	0.75
14260	47590	59.12878831183	0.375
14260	47760	59.253148267005	-0.25
14260	47846	59.333306904796	0.875
14260	47983	59.436967285769	0.875
14260	48331	59.736967285769	0.75
14260	49495	60.644074620181	-0.375
14260	50157	61.244074620181	0.375
14260	51008	62.04663271995	-0.125
14260	51261	62.251208631023	0.875
14260	51395	62.366974372613	0.875
14260	51921	62.856489192607	0.375
14260	52058	62.979950448083	0.375
14260	53375	64.083097492067	-0.5
14260	53936	64.583097492067	0.375
14260	54463	65.100135234795	0.5
14260	54743	65.31474372433	0.875
14260	55131	65.61742006643	0.625
14260	55496	65.91742006643	0.75
14260	55698	66.11752006644	0.75
14260	56281	66.71752006644	0.25
14260	56750	67.122767046264	0.625
14260	57535	67.92559903888	0
14260	57771	68.132297618672	0.875
14260	57870	68.237885240718	-0.125
14260	58034	68.434193136516	0.75
14260	58048	68.441506129495	0.875
14260	58161	68.542784259709	0.875
14260	58648	69.042784259709	0.5
14260	59419	69.765110909634	0.125
14260	59832	70.142921485322	-0.25
14260	59850	70.149293213564	-0.25
14260	59889	70.168840410744	0.625
14260	59987	70.25509340363	0.5
14260	60190	70.460901037155	0.875
14260	60319	70.565017469165	0.875
14260	60806	70.965017469165	0.625
14260	60838	70.973453408939	1
14260	61116	71.173453408939	0.875
14260	61383	71.384022484177	0.875
14260	61421	71.449970532118	0.75
14260	61929	71.766346919295	0.75
14260	62132	71.893445828014	0.875
14260	62213	71.972553256508	0.875
14260	62886	72.572834749764	0.25
14260	63274	72.972834749764	0.625
14260	63717	73.37520674699	0.5
14260	64058	73.67520674699	0.75
14260	64946	74.480128598555	-0.125
14260	65341	74.790101560658	0.75
14260	66102	75.505870343694	0.25
14260	66329	75.716913445635	0.875
14260	66508	75.824346403674	0.875
14260	67084	76.324346403674	0.5
14260	67627	76.732567712041	0.625
14260	67656	76.78029670827	0.5
14260	67968	77.039195100828	0.75
14260	68003	77.096390336629	0.75
14260	68121	77.202402859485	0.25
14260	68159	77.224602707112	0.75
14260	68456	77.503107740083	0.625
14260	68458	77.503475406133	0.625
14260	68490	77.531710203378	0.75
14260	68813	77.834149853072	0.625
14260	69675	78.634149853072	0.125
14260	70317	79.240952972226	0.375
14260	70616	79.441052972236	0.75
14260	71010	79.741052972236	0.75
14260	71440	80.143560844073	0.625
14260	71937	80.550739403359	0.625
14260	72293	80.825118592431	0.875
14260	72356	80.85569792084	0.75
14260	72584	81.0574675617	0.75
14260	73348	81.696046229999	0.875
14260	73653	81.899300946288	0.77777777612209
14260	74039	82.199300946288	0.75
14260	74461	82.50871262167	0.75
14260	75083	83.009679130573	0.5
14260	75259	83.140532384373	0.5
14260	75479	83.31917535865	0.75
14260	75641	83.463860692961	0.75
14260	75697	83.523781665412	0.875
14260	76037	83.770006445429	0.75
14260	76098	83.833013492325	0.625
14260	76215	83.95315807595	0.25
14260	76662	84.357802372559	0.5
14260	77846	85.257802372559	-0.125
14260	78179	85.482644819458	0.25
14260	78451	85.688605012979	0.75
14260	78681	85.888605012979	0.875
14260	78713	85.89712484453	1
14260	79202	86.29712484453	0.625
14260	79538	86.498611818085	0.75
14260	80426	87.198611818085	0.125
14260	81140	87.804980687097	0.375
14260	81555	88.112230422675	0.625
14260	82882	89.292825475663	-0.25
14260	82994	89.405363616306	1
14260	83215	89.608110724054	0.875
14260	83674	90.008950971157	0.625
14260	83892	90.209050971167	0.75
14260	84519	90.709050971167	0.5
14260	85106	91.113399339872	0.375
14260	85888	91.713399339872	0.375
14260	86842	92.46561156943	0.625
14260	87321	92.86561156943	0.625
14260	87584	93.075093515254	0.875
14260	88193	93.682798833648	0.375
14260	88727	94.192189533287	0.5
14260	89110	94.502054526196	0.625
14260	90039	95.302054526196	0.125
14260	90397	95.593461741411	0.75
14260	90936	95.998726523282	0.625
14260	91088	96.104217016694	0
14260	91364	96.31051793398	0.875
14260	91714	96.587944582475	0.75
14260	91849	96.705629671843	0.75
14260	94023	98.611066730582	-1.75
14260	94753	99.211066730582	0.375
14260	95449	99.721035019106	0.5
14260	96250	100.426820773575	0.125
14260	96436	100.529517249839	0.875
14260	97067	101.129517249839	0.375
14260	97741	101.651239314832	0.25
14260	97973	101.853922269797	0.625
14260	98540	102.352352725124	0.75
14260	98552	102.353922269797	0.375
14260	99400	103.079331054973	0.625
14260	99553	103.187907008747	0.875
14260	100244	103.793762690247	0.375
14260	100987	104.394159044377	0.375
14260	101283	104.658955693842	0.5
14260	101630	104.967663543956	0.75
14260	101699	104.998306522784	0.375
14260	101942	105.207819620901	0.875
14260	102335	105.507919620911	0.625
14260	103143	106.107919620911	0.25
14260	103531	106.430254873509	0.75
14260	103851	106.730884904685	0.625
14260	104331	107.115895278364	-0.25
14260	104374	107.172126379881	0.375
14260	104459	107.237783759737	0.375
14260	104776	107.447501874834	0.625
14260	105112	107.747501874834	0.75
14260	105742	108.347601874844	0.25
14260	106364	108.847601874844	0.5
14260	106529	108.99298527205	0.5
14260	106551	109.016602430001	0.5
14260	106584	109.054335119475	0.75
14260	106953	109.325541103358	0.75
14260	106989	109.363234035493	0.75
14260	107892	109.966703707261	0.25
14260	108743	110.566703707261	0.375
14260	109340	111.045104609181	0.75
14260	109835	111.504970249117	0.625
14260	109939	111.546367524995	0.375
14260	110069	111.675667636163	-0.5
14260	110901	112.375810455828	0.125
14260	111298	112.675810455828	0.625
14260	112243	113.474452821077	0.25
14260	112267	113.48444416785	0
14260	112767	113.884782162137	0.5
14260	113255	114.284782162137	0.625
14260	113950	114.797648970853	0.375
14260	114057	114.897748970863	0.875
14260	114562	115.297748970863	0.625
14260	115092	115.798496429148	0.5
14260	115357	116.004853420852	0.875
14260	116715	117.21632048625	-0.5
14260	117048	117.523796256929	0.75
14260	117422	117.833832463831	0.625
14260	118112	118.333832463831	0.375
14260	118377	118.538444765812	0.875
14260	118745	118.845818505923	0.75
14260	119076	119.150002169651	0.75
14260	119289	119.330619809158	0.75
14260	119323	119.354042806047	0.875
14260	119675	119.648283688785	0.75
14260	119855	119.775871718067	-1
14260	119935	119.848348878457	0.875
14260	120054	119.958363088326	0.375
14260	120344	120.159964436426	0.75
14260	120764	120.559964436426	0.625
14260	121760	121.366004792641	-0.125
14260	122305	121.769421158799	0.625
14260	122886	122.173994453859	0.5
14260	123313	122.475214782548	0.75
14260	123772	122.821554271544	0.875
14260	123837	122.888593594847	0.625
14260	124400	123.392383336861	0.375
14260	125264	124.092383336861	0.25
14260	126147	124.823428715995	0.25
14260	126230	124.902005264375	-0.125
14260	126714	125.310855766889	0.5
14260	127423	125.910855766889	0.125
14260	127900	126.302408451735	0.25
14260	128146	126.519767392147	0.25
14260	129071	127.224295135319	0
14260	129812	127.724295135319	0.375
14260	130388	128.338027618573	0.375
14260	131118	129.138127618583	-0.125
14260	132114	130.038127618583	0
14260	132610	130.446002480603	0.625
14260	133218	130.948444288956	0.25
14260	133224	130.950969363383	0.25
14260	133347	131.058118892426	0.375
14260	133739	131.358410016871	0.5
14260	134192	131.758410016871	0.625
14260	134418	131.972771585179	0.5
14260	135165	132.678856224439	0.125
14260	136030	133.378856224439	0.125
14260	136148	133.525343100327	0.625
14260	136211	133.582607700173	0.875
14261	200	20.20000000001	0.2
14261	326	20.40000000001	0.2
14261	527	20.706386759733	0.3
14261	1125	21.406486759743	0.7
14261	1698	21.82825521636	0.3
14261	2338	22.32835521637	0.5
14261	3123	22.92835521637	0.6
14261	4041	23.547406688757	0.6
14261	4415	23.918902768696	0.4
14261	4515	23.955002153791	0.4
14261	4639	24.061554402339	0.1
14261	4886	24.261554402339	0.2
14261	5355	24.668641941626	0.4
14261	6010	25.26895211748	0.6
14261	6769	25.86895211748	0.6
14261	7593	26.581176140941	0.7
14261	7677	26.654738686292	0.4
14261	8052	26.960043171797	0.3
14261	8099	26.988507678072	0.4
14261	9457	27.991398162251	1
14261	10043	28.491398162251	0.5
14261	11697	29.899059141607	1.4
14261	12231	30.299059141607	0.4
14261	12548	30.57133527722	0.3
14261	12798	30.77143527723	0.2
14261	13083	30.97143527723	0.2
14261	14041	31.779336106051	0.8
14261	15055	32.600400522441	0.4
14261	15995	33.300500522451	0.7
14261	16504	33.700500522451	0.4
14261	16750	33.907532869656	0.2
14261	16941	34.015271386972	0.1
14261	18216	35.015271386972	1
14261	18463	35.220931706153	0.2
14261	19210	35.721031706163	0.5
14261	19746	36.121031706163	0.4
14261	20183	36.426742933406	0.3
14261	20679	36.828035426003	0.4
14261	21044	37.144679632983	0.3
14261	21809	37.846922130876	0.7
14261	22759	38.546922130876	0.7
14261	23586	39.157364511493	0.6
14261	25248	40.457991972543	1.3
14261	26044	41.120882200581	0.7
14261	26274	41.322204017085	0.6
14261	26282	41.323878958833	0.2
14261	26534	41.530163687558	0.2
14261	26541	41.533142393964	0.2
14261	26854	41.742090748864	0.2
14261	27092	41.942771193472	0.2
14261	27449	42.243728011342	0.3
14261	27732	42.443828011352	0.2
14261	28378	43.043828011352	0.6
14261	29772	44.455723293854	1.4
14261	30117	44.761822574618	0.3
14261	30601	45.161822574618	0.4
14261	30994	45.465553042292	0.3
14261	31432	45.811921900817	0.5
14261	31858	46.118248213374	0.3
14261	31877	46.120919788793	0.3
14261	32074	46.269411622717	0.8
14261	32367	46.47471185911	0.2
14261	33250	47.206684492134	0.5
14261	34014	47.906684492134	0.7
14261	34741	48.508802593172	0.6
14261	35643	49.309426729028	0.8
14261	36162	49.815686721048	0.5
14261	36452	50.125325337749	0.3
14261	37209	50.749297052776	0.8
14261	37282	50.82561791423	0.7
14261	37656	51.153710188209	0.4
14261	37886	51.357752222994	0.2
14261	38931	52.257752222994	0.9
14261	39304	52.557852223004	0.3
14261	39995	53.057852223004	0.5
14261	40916	53.658675002004	0.6
14261	40963	53.678502223531	0.3
14261	41391	53.959837405576	0.3
14261	41599	54.089423620958	0.4
14261	42059	54.498349325115	0.4
14261	42100	54.516138229441	0.5
14261	42394	54.723398442109	0.2
14261	43693	55.723398442109	1
14261	44094	56.125335314023	0.4
14261	44279	56.280069432505	0.3
14261	44676	56.581644371277	0.3
14261	44875	56.726082179114	0.6
14261	44890	56.732102029373	0.6
14261	45176	56.932499074845	0.2
14261	45180	56.932873780043	0.2
14261	45768	57.432973780053	0.5
14261	45985	57.632973780053	0.2
14261	46472	58.142880443267	0.5
14261	46782	58.445414830595	0.3
14261	47590	59.12878831183	0.6
14261	47760	59.253148267005	0.8
14261	47846	59.333306904796	0.2
14261	47983	59.436967285769	0.1
14261	48331	59.736967285769	0.3
14261	49495	60.644074620181	0.9
14261	50157	61.244074620181	0.6
14261	51008	62.04663271995	0.8
14261	51261	62.251208631023	0.2
14261	51395	62.366974372613	0.2
14261	51921	62.856489192607	0.6
14261	52058	62.979950448083	0.6
14261	53375	64.083097492067	1.1
14261	53936	64.583097492067	0.5
14261	54463	65.100135234795	0.5
14261	54743	65.31474372433	0.2
14261	55131	65.61742006643	0.3
14261	55496	65.91742006643	0.3
14261	55698	66.11752006644	0.2
14261	56281	66.71752006644	0.6
14261	56750	67.122767046264	0.4
14261	57535	67.92559903888	0.8
14261	57771	68.132297618672	0.2
14261	57870	68.237885240718	0.9
14261	58034	68.434193136516	0.3
14261	58048	68.441506129495	0.2