file 828192 1369933137                                          
version 2
run Stability-48-20130528-00:53:08-21385
attr configname Stability
attr datetime 20130528-00:53:08
attr experiment Stability
attr inifile omnetpp.ini
attr iterationvars $0=1e2
attr iterationvars2 "$0=1e2, $repetition=8"
attr measurement $0=1e2
attr network Network
attr processid 21385
attr repetition 8
attr replication #8
attr resultdir results
attr runnumber 48
attr seedset 48
vector 4752  Network.churner  inGoingSizeSig:vector  ETV
4752	726756 101436 22 97569 20 226.644559401765 4097 0 18 50707 639119
vector 4656  Network.dyn_peer[0]  lookupHopsSig:vector  ETV
4656	6435 7318 37 97383 20.3 225.622322332894 293 0 18 835 3653
vector 4657  Network.dyn_peer[0]  lookupStabilitySig:vector  ETV
4657	13753 8301 37 97383 20.3 225.622322332894 293 -1.25 1 188.625 141.328125
vector 4658  Network.dyn_peer[0]  lookupTimeSig:vector  ETV
4658	22054 7894 37 97383 20.3 225.622322332894 293 0 1.5 100.8 44.74
vector 4659  Network.dyn_peer[1]  lookupHopsSig:vector  ETV
4659	29948 6869 41 96617 20.3 223.8 281 0 10 730 2734
vector 4660  Network.dyn_peer[1]  lookupStabilitySig:vector  ETV
4660	36817 7822 41 96617 20.3 223.8 281 -0.25 1 189.76388888806 141.24324845532
vector 4661  Network.dyn_peer[1]  lookupTimeSig:vector  ETV
4661	44639 7422 41 96617 20.3 223.8 281 0 0.9 90.5 36.33
vector 4662  Network.dyn_peer[2]  lookupHopsSig:vector  ETV
4662	52061 7318 68 97105 20.6 224.702012820998 295 0 11 823 3327
vector 4663  Network.dyn_peer[2]  lookupStabilitySig:vector  ETV
4663	59379 8326 68 97105 20.6 224.702012820998 295 -0.375 1 192.15277777612 141.27681326903
vector 4664  Network.dyn_peer[2]  lookupTimeSig:vector  ETV
4664	67705 7896 68 97105 20.6 224.702012820998 295 0 1.1 99.1 41.75
vector 4665  Network.dyn_peer[3]  lookupHopsSig:vector  ETV
4665	75601 6981 72 96529 20.6 223.616787114384 281 0 10 813 3303
vector 4666  Network.dyn_peer[3]  lookupStabilitySig:vector  ETV
4666	82582 7947 72 96529 20.6 223.616787114384 281 -0.25 1 179.38888888806 129.38387345532
vector 4667  Network.dyn_peer[3]  lookupTimeSig:vector  ETV
4667	90529 7535 72 96529 20.6 223.616787114384 281 0 1 98.7 42.69
vector 4668  Network.dyn_peer[4]  lookupHopsSig:vector  ETV
4668	98064 7355 76 96876 20.6 224.2 296 0 11 829 3537
vector 4669  Network.dyn_peer[4]  lookupStabilitySig:vector  ETV
4669	105419 8397 76 96876 20.6 224.2 296 -0.375 1 192.55555549264 144.01929012199
vector 4670  Network.dyn_peer[4]  lookupTimeSig:vector  ETV
4670	113816 7937 76 96876 20.6 224.2 296 0 1.1 99.9 42.87
vector 4671  Network.dyn_peer[5]  lookupHopsSig:vector  ETV
4671	121753 6617 127 97124 20.9 224.723939692702 269 0 13 766 3266
vector 4672  Network.dyn_peer[5]  lookupStabilitySig:vector  ETV
4672	128370 7546 127 97124 20.9 224.723939692702 269 -0.625 1 173.26388888806 128.55574845532
vector 4673  Network.dyn_peer[5]  lookupTimeSig:vector  ETV
4673	135916 7141 127 97124 20.9 224.723939692702 269 0 1 92.8 40.12
vector 4674  Network.dyn_peer[6]  lookupHopsSig:vector  ETV
4674	143057 6738 131 97042 20.9 224.523798217901 270 0 15 771 3333
vector 4675  Network.dyn_peer[6]  lookupStabilitySig:vector  ETV
4675	149795 7676 131 97042 20.9 224.523798217901 270 -0.875 1 173.66666666418 129.39506172435
vector 4676  Network.dyn_peer[6]  lookupTimeSig:vector  ETV
4676	157471 7264 131 97042 20.9 224.523798217901 270 0 1.4 92.4 40.66
vector 4677  Network.dyn_peer[7]  lookupHopsSig:vector  ETV
4677	164735 7013 135 96677 20.9 223.840154631619 282 0 14 792 3336
vector 4678  Network.dyn_peer[7]  lookupStabilitySig:vector  ETV
4678	171748 7955 135 96677 20.9 223.840154631619 282 -0.75 1 183.01388888806 136.14949845532
vector 4679  Network.dyn_peer[7]  lookupTimeSig:vector  ETV
4679	179703 7568 135 96677 20.9 223.840154631619 282 0 1.3 95.7 41.91
vector 4680  Network.dyn_peer[8]  lookupHopsSig:vector  ETV
4680	187271 6751 175 96434 21.1 223.425349193075 274 0 11 715 2817
vector 4681  Network.dyn_peer[8]  lookupStabilitySig:vector  ETV
4681	194022 7679 175 96434 21.1 223.425349193075 274 -0.375 1 184.65277777612 139.31462191064
vector 4682  Network.dyn_peer[8]  lookupTimeSig:vector  ETV
4682	201701 7271 175 96434 21.1 223.425349193075 274 0 1.1 87 36.06
vector 4683  Network.dyn_peer[9]  lookupHopsSig:vector  ETV
4683	208972 7223 199 96554 21.2 223.63634427786 289 0 12 855 3677
vector 4684  Network.dyn_peer[9]  lookupStabilitySig:vector  ETV
4684	216195 8206 199 96554 21.2 223.63634427786 289 -0.5 1 182.125 132.703125
vector 4685  Network.dyn_peer[9]  lookupTimeSig:vector  ETV
4685	224401 7785 199 96554 21.2 223.63634427786 289 0 1.1 102.2 45.2
vector 4686  Network.dyn_peer[10]  lookupHopsSig:vector  ETV
4686	232186 7036 219 97441 21.3 225.825306114577 282 0 12 802 3548
vector 4687  Network.dyn_peer[10]  lookupStabilitySig:vector  ETV
4687	239222 7960 219 97441 21.3 225.825306114577 282 -0.5 1 181.75 136.9375
vector 4688  Network.dyn_peer[10]  lookupTimeSig:vector  ETV
4688	247182 7577 219 97441 21.3 225.825306114577 282 0 1.1 95.3 42.11
vector 4692  Network.dyn_peer[12]  lookupHopsSig:vector  ETV
4692	277613 7249 257 96717 21.4 223.911893839555 293 0 8 788 3014
vector 4693  Network.dyn_peer[12]  lookupStabilitySig:vector  ETV
4693	284862 8230 257 96717 21.4 223.911893839555 293 0 1 194.58333331347 143.14236109787
vector 4694  Network.dyn_peer[12]  lookupTimeSig:vector  ETV
4694	293092 7825 257 96717 21.4 223.911893839555 293 0 0.9 97 39.9
vector 4689  Network.dyn_peer[11]  lookupHopsSig:vector  ETV
4689	254759 7112 282 97529 21.5 226.223124533842 286 0 14 767 3169
vector 4690  Network.dyn_peer[11]  lookupStabilitySig:vector  ETV
4690	261871 8076 282 97529 21.5 226.223124533842 286 -0.75 1 190.16666665673 143.8194444312
vector 4691  Network.dyn_peer[11]  lookupTimeSig:vector  ETV
4691	269947 7666 282 97529 21.5 226.223124533842 286 0 1.1 93.6 38.64
vector 4695  Network.dyn_peer[13]  lookupHopsSig:vector  ETV
4695	300917 7059 286 96623 21.5 223.8001 284 0 15 815 3691
vector 4696  Network.dyn_peer[13]  lookupStabilitySig:vector  ETV
4696	307976 8051 286 96623 21.5 223.8001 284 -0.875 1 182.26388885081 138.07503854088
vector 4697  Network.dyn_peer[13]  lookupTimeSig:vector  ETV
4697	316027 7610 286 96623 21.5 223.8001 284 0 1.3 98.1 44.59
vector 4698  Network.dyn_peer[14]  lookupHopsSig:vector  ETV
4698	323637 6866 365 97255 21.7 225.20789323945 278 0 10 702 2668
vector 4699  Network.dyn_peer[14]  lookupStabilitySig:vector  ETV
4699	330503 7819 365 97255 21.7 225.20789323945 278 -0.25 1 190.26388888806 144.21199845532
vector 4700  Network.dyn_peer[14]  lookupTimeSig:vector  ETV
4700	338322 7405 365 97255 21.7 225.20789323945 278 0 0.9 85.9 33.71
vector 4701  Network.dyn_peer[15]  lookupHopsSig:vector  ETV
4701	345727 6974 369 96966 21.7 224.345422771583 282 0 13 788 3148
vector 4702  Network.dyn_peer[15]  lookupStabilitySig:vector  ETV
4702	352701 7948 369 96966 21.7 224.345422771583 282 -0.625 1 183.52777777612 134.23649691064
vector 4703  Network.dyn_peer[15]  lookupTimeSig:vector  ETV
4703	360649 7534 369 96966 21.7 224.345422771583 282 0 1.1 94.6 39.16
vector 4704  Network.dyn_peer[16]  lookupHopsSig:vector  ETV
4704	368183 6982 481 97274 22 225.216837317879 284 0 14 789 3253
vector 4705  Network.dyn_peer[16]  lookupStabilitySig:vector  ETV
4705	375165 7956 481 97274 22 225.216837317879 284 -0.75 1 185.375 137.578125
vector 4706  Network.dyn_peer[16]  lookupTimeSig:vector  ETV
4706	383121 7541 481 97274 22 225.216837317879 284 0 1.2 96.2 40.8
vector 4710  Network.dyn_peer[18]  lookupHopsSig:vector  ETV
4710	413673 6944 485 96209 22 222.930419869784 283 0 11 732 2804
vector 4711  Network.dyn_peer[18]  lookupStabilitySig:vector  ETV
4711	420617 7902 485 96209 22 222.930419869784 283 -0.375 1 191.51388888806 143.83699845532
vector 4712  Network.dyn_peer[18]  lookupTimeSig:vector  ETV
4712	428519 7497 485 96209 22 222.930419869784 283 0 1 90.7 36.85
vector 4707  Network.dyn_peer[17]  lookupHopsSig:vector  ETV
4707	390662 7162 522 97568 22.1 226.644459401765 285 0 13 750 2962
vector 4708  Network.dyn_peer[17]  lookupStabilitySig:vector  ETV
4708	397824 8126 522 97568 22.1 226.644459401765 285 -0.625 1 191.25 143.78125
vector 4709  Network.dyn_peer[17]  lookupTimeSig:vector  ETV
4709	405950 7723 522 97568 22.1 226.644459401765 285 0 1.1 92.9 38.19
vector 4713  Network.dyn_peer[19]  lookupHopsSig:vector  ETV
4713	436016 6982 526 97332 22.1 225.419794279027 284 0 14 815 3451
vector 4714  Network.dyn_peer[19]  lookupStabilitySig:vector  ETV
4714	442998 7932 526 97332 22.1 225.419794279027 284 -0.75 1 182.16666665673 134.2256944312
vector 4715  Network.dyn_peer[19]  lookupTimeSig:vector  ETV
4715	450930 7533 526 97332 22.1 225.419794279027 284 0 1.3 98.7 43.89
vector 4716  Network.dyn_peer[20]  lookupHopsSig:vector  ETV
4716	458463 6550 569 96368 22.2 223.334138732997 268 0 11 751 2921
vector 4717  Network.dyn_peer[20]  lookupStabilitySig:vector  ETV
4717	465013 7482 569 96368 22.2 223.334138732997 268 -0.375 1 174.22222221643 126.01620369598
vector 4718  Network.dyn_peer[20]  lookupTimeSig:vector  ETV
4718	472495 7077 569 96368 22.2 223.334138732997 268 0 1 90.6 37.18
vector 4719  Network.dyn_peer[21]  lookupHopsSig:vector  ETV
4719	479572 6970 722 97435 22.5 225.821963459934 284 0 9 738 2748
vector 4720  Network.dyn_peer[21]  lookupStabilitySig:vector  ETV
4720	486542 7922 722 97435 22.5 225.821963459934 284 -0.125 1 191.76388888806 142.46199845532
vector 4721  Network.dyn_peer[21]  lookupTimeSig:vector  ETV
4721	494464 7522 722 97435 22.5 225.821963459934 284 0 0.8 89.5 34.71
vector 4722  Network.dyn_peer[22]  lookupHopsSig:vector  ETV
4722	501986 6679 726 96397 22.5 223.40231624554 272 0 10 730 2846
vector 4723  Network.dyn_peer[22]  lookupStabilitySig:vector  ETV
4723	508665 7572 726 96397 22.5 223.40231624554 272 -0.25 1 180.75 133.96875
vector 4724  Network.dyn_peer[22]  lookupTimeSig:vector  ETV
4724	516237 7211 726 96397 22.5 223.40231624554 272 0 1 89.1 36.67
vector 4725  Network.dyn_peer[23]  lookupHopsSig:vector  ETV
4725	523448 6924 799 97380 22.6 225.621937814509 279 0 11 758 3068
vector 4726  Network.dyn_peer[23]  lookupStabilitySig:vector  ETV
4726	530372 7894 799 97380 22.6 225.621937814509 279 -0.375 1 184.33333332837 137.53858024066
vector 4727  Network.dyn_peer[23]  lookupTimeSig:vector  ETV
4727	538266 7475 799 97380 22.6 225.621937814509 279 0 0.9 91.5 37.27
vector 4734  Network.dyn_peer[26]  lookupHopsSig:vector  ETV
4734	593084 7075 848 97438 22.7 225.824577717671 285 0 17 778 3390
vector 4735  Network.dyn_peer[26]  lookupStabilitySig:vector  ETV
4735	600159 8048 848 97438 22.7 225.824577717671 285 -1.125 1 187.75 143.46875
vector 4736  Network.dyn_peer[26]  lookupTimeSig:vector  ETV
4736	608207 7627 848 97438 22.7 225.824577717671 285 0 1.4 93.7 40.35
vector 4728  Network.dyn_peer[24]  lookupHopsSig:vector  ETV
4728	545741 7273 899 97214 22.8 225.026691605014 292 0 18 807 3607
vector 4729  Network.dyn_peer[24]  lookupStabilitySig:vector  ETV
4729	553014 8237 899 97214 22.8 225.026691605014 292 -1.25 1 191.13888888806 146.63387345532
vector 4730  Network.dyn_peer[24]  lookupTimeSig:vector  ETV
4730	561251 7830 899 97214 22.8 225.026691605014 292 0 1.5 97.2 43.5
vector 4731  Network.dyn_peer[25]  lookupHopsSig:vector  ETV
4731	569081 7466 1048 97054 23.1 224.538939240979 301 0 10 822 3178
vector 4732  Network.dyn_peer[25]  lookupStabilitySig:vector  ETV
4732	576547 8483 1048 97054 23.1 224.538939240979 301 -0.25 1 198.27777777612 145.19868826903
vector 4733  Network.dyn_peer[25]  lookupTimeSig:vector  ETV
4733	585030 8054 1048 97054 23.1 224.538939240979 301 0 0.9 99.9 40.57
vector 4743  Network.dyn_peer[29]  lookupHopsSig:vector  ETV
4743	660348 6923 1087 95923 23.2 222.4 279 0 14 759 3107
vector 4744  Network.dyn_peer[29]  lookupStabilitySig:vector  ETV
4744	667271 7851 1087 95923 23.2 222.4 279 -0.75 1 184.2499999702 137.89930552906
vector 4745  Network.dyn_peer[29]  lookupTimeSig:vector  ETV
4745	675122 7457 1087 95923 23.2 222.4 279 0 1.4 92.5 40.15
vector 4746  Network.dyn_peer[30]  lookupHopsSig:vector  ETV
4746	682579 6837 1091 96823 23.2 224.1001 277 0 15 747 3145
vector 4747  Network.dyn_peer[30]  lookupStabilitySig:vector  ETV
4747	689416 7791 1091 96823 23.2 224.1001 277 -0.875 1 183.66666665673 139.4444444312
vector 4748  Network.dyn_peer[30]  lookupTimeSig:vector  ETV
4748	697207 7374 1091 96823 23.2 224.1001 277 0 1.3 91 39.02
vector 4737  Network.dyn_peer[27]  lookupHopsSig:vector  ETV
4737	615834 6810 1160 96302 23.3 223.2 277 0 11 787 3251
vector 4738  Network.dyn_peer[27]  lookupStabilitySig:vector  ETV
4738	622644 7784 1160 96302 23.3 223.2 277 -0.375 1 178.81944440305 131.18653546476
vector 4739  Network.dyn_peer[27]  lookupTimeSig:vector  ETV
4739	630428 7351 1160 96302 23.3 223.2 277 0 1 95.2 41.12
vector 4740  Network.dyn_peer[28]  lookupHopsSig:vector  ETV
4740	637779 7033 1165 96941 23.3 224.311993839555 284 0 10 761 2979
vector 4741  Network.dyn_peer[28]  lookupStabilitySig:vector  ETV
4741	644812 7953 1165 96941 23.3 224.311993839555 284 -0.25 1 188.875 140.296875
vector 4742  Network.dyn_peer[28]  lookupTimeSig:vector  ETV
4742	652765 7583 1165 96941 23.3 224.311993839555 284 0 0.9 93.9 39.27
vector 4749  Network.dyn_peer[31]  lookupHopsSig:vector  ETV
4749	704581 6890 1297 96390 23.6 223.4 281 0 12 755 2845
vector 4750  Network.dyn_peer[31]  lookupStabilitySig:vector  ETV
4750	711471 7846 1297 96390 23.6 223.4 281 -0.5 1 186.65277777612 136.74556326903
vector 4751  Network.dyn_peer[31]  lookupTimeSig:vector  ETV
4751	719317 7439 1297 96390 23.6 223.4 281 0 1 91.5 36.43
