file 1062467 1369933135                                         
version 2
run Stability-110-20130528-00:57:45-21385
attr configname Stability
attr datetime 20130528-00:57:45
attr experiment Stability
attr inifile omnetpp.ini
attr iterationvars $0=1e-5
attr iterationvars2 "$0=1e-5, $repetition=0"
attr measurement $0=1e-5
attr network Network
attr processid 21385
attr repetition 0
attr replication #0
attr resultdir results
attr runnumber 110
attr seedset 110
vector 10766  Network.churner  inGoingSizeSig:vector  ETV
10766	934244 128223 22 134297 20 134.582457765459 4097 0 31 125774 3882786
vector 10676  Network.dyn_peer[2]  lookupHopsSig:vector  ETV
10676	63395 9045 35 134042 20.00000003 132.771163375505 299 0 22 1259 7735
vector 10677  Network.dyn_peer[2]  lookupStabilitySig:vector  ETV
10677	72440 9997 35 134042 20.00000003 132.771163375505 299 -1.75 1 141.625 105.109375
vector 10678  Network.dyn_peer[2]  lookupTimeSig:vector  ETV
10678	82437 9619 35 134042 20.00000003 132.771163375505 299 0 2.1 139.5 85.87
vector 10682  Network.dyn_peer[4]  lookupHopsSig:vector  ETV
10682	121571 8298 45 132812 20.00000005 131.465649399205 273 0 18 1183 7831
vector 10683  Network.dyn_peer[4]  lookupStabilitySig:vector  ETV
10683	129869 9199 45 132812 20.00000005 131.465649399205 273 -1.25 1 125.16666665673 99.663194431199
vector 10684  Network.dyn_peer[4]  lookupTimeSig:vector  ETV
10684	139068 8804 45 132812 20.00000005 131.465649399205 273 0 1.4 130.9 84.09
vector 10724  Network.dyn_peer[18]  lookupHopsSig:vector  ETV
10724	522480 8886 91 133224 20.00000019 131.823313101756 292 0 20 1085 6165
vector 10725  Network.dyn_peer[18]  lookupStabilitySig:vector  ETV
10725	531366 9855 91 133224 20.00000019 131.823313101756 292 -1.5 1 156.45833332837 117.17920524066
vector 10726  Network.dyn_peer[18]  lookupTimeSig:vector  ETV
10726	541221 9433 91 133224 20.00000019 131.823313101756 292 0 1.9 123.7 71.11
vector 10727  Network.dyn_peer[19]  lookupHopsSig:vector  ETV
10727	550654 9397 98 133883 20.0000002 132.46909427679 310 0 17 1256 7816
vector 10728  Network.dyn_peer[19]  lookupStabilitySig:vector  ETV
10728	560051 10460 98 133883 20.0000002 132.46909427679 310 -1.125 1 153.06944444031 118.20814042695
vector 10729  Network.dyn_peer[19]  lookupTimeSig:vector  ETV
10729	570511 9979 98 133883 20.0000002 132.46909427679 310 0 1.6 140.6 86.48
vector 10763  Network.dyn_peer[31]  lookupHopsSig:vector  ETV
10763	903907 9552 138 134295 20.00000032 134.574587660201 314 0 14 1231 7009
vector 10764  Network.dyn_peer[31]  lookupStabilitySig:vector  ETV
10764	913459 10628 138 134295 20.00000032 134.574587660201 314 -0.75 1 160.22222220153 115.89776231772
vector 10765  Network.dyn_peer[31]  lookupTimeSig:vector  ETV
10765	924087 10157 138 134295 20.00000032 134.574587660201 314 0 1.4 139.9 80.73
vector 10670  Network.dyn_peer[0]  lookupHopsSig:vector  ETV
10670	6538 9249 143 133507 20.10000001 132.092795664024 304 0 18 1222 7562
vector 10671  Network.dyn_peer[0]  lookupStabilitySig:vector  ETV
10671	15787 10298 143 133507 20.10000001 132.092795664024 304 -1.25 1 151.29166665673 116.7100694312
vector 10672  Network.dyn_peer[0]  lookupTimeSig:vector  ETV
10672	26085 9830 143 133507 20.10000001 132.092795664024 304 0 1.9 138.7 85.35
vector 10673  Network.dyn_peer[1]  lookupHopsSig:vector  ETV
10673	35915 8684 148 133092 20.10000002 131.730116058665 286 0 16 1224 7862
vector 10674  Network.dyn_peer[1]  lookupStabilitySig:vector  ETV
10674	44599 9582 148 133092 20.10000002 131.730116058665 286 -1 1 133 102.84375
vector 10675  Network.dyn_peer[1]  lookupTimeSig:vector  ETV
10675	54181 9214 148 133092 20.10000002 131.730116058665 286 0 1.5 136.6 86.38
vector 10688  Network.dyn_peer[6]  lookupHopsSig:vector  ETV
10688	176339 9463 157 133550 20.10000007 132.125172712297 312 0 17 1241 7773
vector 10689  Network.dyn_peer[6]  lookupStabilitySig:vector  ETV
10689	185802 10500 157 133550 20.10000007 132.125172712297 312 -1.125 1 156.98611109704 123.34008485815
vector 10690  Network.dyn_peer[6]  lookupTimeSig:vector  ETV
10690	196302 10042 157 133550 20.10000007 132.125172712297 312 0 1.5 139.6 86.32
vector 10700  Network.dyn_peer[10]  lookupHopsSig:vector  ETV
10700	290459 9542 165 134048 20.10000011 132.782854751843 314 0 26 1240 7814
vector 10701  Network.dyn_peer[10]  lookupStabilitySig:vector  ETV
10701	300001 10554 165 134048 20.10000011 132.782854751843 314 -2.25 1 159 126.09375
vector 10702  Network.dyn_peer[10]  lookupTimeSig:vector  ETV
10702	310555 10119 165 134048 20.10000011 132.782854751843 314 0 2.4 140.2 87.26
vector 10745  Network.dyn_peer[25]  lookupHopsSig:vector  ETV
10745	728747 9263 184 133819 20.10000026 132.381616822068 305 0 13 1136 6314
vector 10746  Network.dyn_peer[25]  lookupStabilitySig:vector  ETV
10746	738010 10266 184 133819 20.10000026 132.381616822068 305 -0.625 1 163.02777777612 119.69868826903
vector 10747  Network.dyn_peer[25]  lookupTimeSig:vector  ETV
10747	748276 9839 184 133819 20.10000026 132.381616822068 305 0 1.4 130.7 73.91
vector 10760  Network.dyn_peer[30]  lookupHopsSig:vector  ETV
10760	876864 8538 193 133113 20.10000031 131.733460055155 281 1 20 1159 7209
vector 10761  Network.dyn_peer[30]  lookupStabilitySig:vector  ETV
10761	885402 9432 193 133113 20.10000031 131.733460055155 281 -1.5 0.875 136.125 103.890625
vector 10762  Network.dyn_peer[30]  lookupTimeSig:vector  ETV
10762	894834 9073 193 133113 20.10000031 131.733460055155 281 0.1 1.9 128.5 77.55
vector 10679  Network.dyn_peer[3]  lookupHopsSig:vector  ETV
10679	92056 9317 204 133385 20.20000004 131.959158132534 307 0 16 1203 7179
vector 10680  Network.dyn_peer[3]  lookupStabilitySig:vector  ETV
10680	101373 10307 204 133385 20.20000004 131.959158132534 307 -1 1 156.625 118.421875
vector 10681  Network.dyn_peer[3]  lookupTimeSig:vector  ETV
10681	111680 9891 204 133385 20.20000004 131.959158132534 307 0 1.5 136.2 80.42
vector 10697  Network.dyn_peer[9]  lookupHopsSig:vector  ETV
10697	258868 9971 214 132775 20.2000001 131.441926914329 328 0 21 1355 9413
vector 10698  Network.dyn_peer[9]  lookupStabilitySig:vector  ETV
10698	268839 11033 214 132775 20.2000001 131.441926914329 328 -1.625 1 158.625 136.328125
vector 10699  Network.dyn_peer[9]  lookupTimeSig:vector  ETV
10699	279872 10587 214 132775 20.2000001 131.441926914329 328 0 2 151.8 102.54
vector 10706  Network.dyn_peer[12]  lookupHopsSig:vector  ETV
10706	351532 8931 220 134249 20.20000013 133.415139910983 294 0 20 1205 7573
vector 10707  Network.dyn_peer[12]  lookupStabilitySig:vector  ETV
10707	360463 9870 220 134249 20.20000013 133.415139910983 294 -1.5 1 143.47222219408 111.17746910968
vector 10708  Network.dyn_peer[12]  lookupTimeSig:vector  ETV
10708	370333 9474 220 134249 20.20000013 133.415139910983 294 0 1.9 136.9 86.51
vector 10709  Network.dyn_peer[13]  lookupHopsSig:vector  ETV
10709	379807 8598 225 133116 20.20000014 131.735998861347 283 0 15 1171 7415
vector 10710  Network.dyn_peer[13]  lookupStabilitySig:vector  ETV
10710	388405 9588 225 133116 20.20000014 131.735998861347 283 -0.875 1 136.98611109704 106.2150848449
vector 10711  Network.dyn_peer[13]  lookupTimeSig:vector  ETV
10711	397993 9112 225 133116 20.20000014 131.735998861347 283 0 1.4 131.3 82.67
vector 10712  Network.dyn_peer[14]  lookupHopsSig:vector  ETV
10712	407105 8891 230 132864 20.20000015 131.522671541479 293 0 19 1194 7654
vector 10713  Network.dyn_peer[14]  lookupStabilitySig:vector  ETV
10713	415996 9874 230 132864 20.20000015 131.522671541479 293 -1.375 1 143.75 114.09375
vector 10714  Network.dyn_peer[14]  lookupTimeSig:vector  ETV
10714	425870 9446 230 132864 20.20000015 131.522671541479 293 0 1.7 133.3 82.61
vector 10715  Network.dyn_peer[15]  lookupHopsSig:vector  ETV
10715	435316 9325 235 133758 20.20000016 132.348787965717 307 0 15 1214 7068
vector 10716  Network.dyn_peer[15]  lookupStabilitySig:vector  ETV
10716	444641 10347 235 133758 20.20000016 132.348787965717 307 -0.875 1 155.30555554479 114.01581788652
vector 10717  Network.dyn_peer[15]  lookupTimeSig:vector  ETV
10717	454988 9905 235 133758 20.20000016 132.348787965717 307 0 1.5 137.6 80.76
vector 10721  Network.dyn_peer[17]  lookupHopsSig:vector  ETV
10721	493611 9105 241 133481 20.20000018 132.06899427679 300 0 17 1291 8293
vector 10722  Network.dyn_peer[17]  lookupStabilitySig:vector  ETV
10722	502716 10093 241 133481 20.20000018 132.06899427679 300 -1.125 1 138.7499999851 106.98302467186
vector 10723  Network.dyn_peer[17]  lookupTimeSig:vector  ETV
10723	512809 9671 241 133481 20.20000018 132.06899427679 300 0 1.5 142.4 89.4
vector 10730  Network.dyn_peer[20]  lookupHopsSig:vector  ETV
10730	580490 9761 248 134139 20.20000021 133.052552707633 321 0 19 1230 7736
vector 10731  Network.dyn_peer[20]  lookupStabilitySig:vector  ETV
10731	590251 10881 248 134139 20.20000021 133.052552707633 321 -1.375 1 167.4999999404 134.59297834134
vector 10732  Network.dyn_peer[20]  lookupTimeSig:vector  ETV
10732	601132 10365 248 134139 20.20000021 133.052552707633 321 0 1.8 139.9 86.07
vector 10736  Network.dyn_peer[22]  lookupHopsSig:vector  ETV
10736	640525 9747 254 133779 20.20000023 132.357306071511 320 0 17 1234 7306
vector 10737  Network.dyn_peer[22]  lookupStabilitySig:vector  ETV
10737	650272 10793 254 133779 20.20000023 132.357306071511 320 -1.125 1 165.79166665673 125.7100694312
vector 10738  Network.dyn_peer[22]  lookupTimeSig:vector  ETV
10738	661065 10350 254 133779 20.20000023 132.357306071511 320 0 1.7 140.5 83.09
vector 10691  Network.dyn_peer[7]  lookupHopsSig:vector  ETV
10691	206344 8309 278 133952 20.30000008 132.577983915959 273 0 23 1200 8546
vector 10692  Network.dyn_peer[7]  lookupStabilitySig:vector  ETV
10692	214653 9223 278 133952 20.30000008 132.577983915959 273 -1.875 1 123.06666665524 106.62944442852
vector 10693  Network.dyn_peer[7]  lookupTimeSig:vector  ETV
10693	223876 8807 278 133952 20.30000008 132.577983915959 273 0 2.2 132.6 89.46
vector 10694  Network.dyn_peer[8]  lookupHopsSig:vector  ETV
10694	232683 8267 283 134083 20.30000009 132.888221551157 271 0 22 1230 9090
vector 10695  Network.dyn_peer[8]  lookupStabilitySig:vector  ETV
10695	240950 9147 283 134083 20.30000009 132.888221551157 271 -1.75 1 117.27777777612 105.57368826903
vector 10696  Network.dyn_peer[8]  lookupTimeSig:vector  ETV
10696	250097 8771 283 134083 20.30000009 132.888221551157 271 0 2 133.8 94.04
vector 10733  Network.dyn_peer[21]  lookupHopsSig:vector  ETV
10733	611497 9173 300 132950 20.30000022 131.571163365505 302 0 21 1306 9118
vector 10734  Network.dyn_peer[21]  lookupStabilitySig:vector  ETV
10734	620670 10112 300 132950 20.30000022 131.571163365505 302 -1.625 1 138.75 117.96875
vector 10735  Network.dyn_peer[21]  lookupTimeSig:vector  ETV
10735	630782 9743 300 132950 20.30000022 131.571163365505 302 0 1.9 144.3 97.39
vector 10739  Network.dyn_peer[23]  lookupHopsSig:vector  ETV
10739	671415 9178 306 133527 20.30000024 132.120391717387 302 0 19 1222 7544
vector 10740  Network.dyn_peer[23]  lookupStabilitySig:vector  ETV
10740	680593 10178 306 133527 20.30000024 132.120391717387 302 -1.375 1 149.27777777612 114.41743826903
vector 10741  Network.dyn_peer[23]  lookupTimeSig:vector  ETV
10741	690771 9744 306 133527 20.30000024 132.120391717387 302 0 1.6 136.3 82.95
vector 10742  Network.dyn_peer[24]  lookupHopsSig:vector  ETV
10742	700515 8907 311 133635 20.30000025 132.181516822068 292 0 17 1163 7777
vector 10743  Network.dyn_peer[24]  lookupStabilitySig:vector  ETV
10743	709422 9874 311 133635 20.30000025 132.181516822068 292 -1.125 1 146.65277777612 122.80806326903
vector 10744  Network.dyn_peer[24]  lookupTimeSig:vector  ETV
10744	719296 9451 311 133635 20.30000025 132.181516822068 292 0 1.5 129 80.54
vector 10748  Network.dyn_peer[26]  lookupHopsSig:vector  ETV
10748	758115 9131 317 134218 20.30000027 133.252752707633 300 0 24 1308 8736
vector 10749  Network.dyn_peer[26]  lookupStabilitySig:vector  ETV
10749	767246 10087 317 134218 20.30000027 133.252752707633 300 -2 1 136.56944444031 109.58314042695
vector 10750  Network.dyn_peer[26]  lookupTimeSig:vector  ETV
10750	777333 9694 317 134218 20.30000027 133.252752707633 300 0 2.2 144.5 93.69
vector 10754  Network.dyn_peer[28]  lookupHopsSig:vector  ETV
10754	817873 9062 323 133721 20.30000029 132.290159891617 298 0 19 1255 7937
vector 10755  Network.dyn_peer[28]  lookupStabilitySig:vector  ETV
10755	826935 10059 323 133721 20.30000029 132.290159891617 298 -1.375 1 141.19444444031 108.34876542695
vector 10756  Network.dyn_peer[28]  lookupTimeSig:vector  ETV
10756	836994 9617 323 133721 20.30000029 132.290159891617 298 0 1.6 138.9 86.73
vector 10703  Network.dyn_peer[11]  lookupHopsSig:vector  ETV
10703	320674 9728 351 134079 20.40000012 132.881910511149 320 0 19 1260 7634
vector 10704  Network.dyn_peer[11]  lookupStabilitySig:vector  ETV
10704	330402 10793 351 134079 20.40000012 132.881910511149 320 -1.375 1 162.52777777612 124.33024691064
vector 10705  Network.dyn_peer[11]  lookupTimeSig:vector  ETV
10705	341195 10337 351 134079 20.40000012 132.881910511149 320 0 1.7 142.3 84.15
vector 10751  Network.dyn_peer[27]  lookupHopsSig:vector  ETV
10751	787027 9726 373 133789 20.40000028 132.359875195308 320 0 17 1212 6952
vector 10752  Network.dyn_peer[27]  lookupStabilitySig:vector  ETV
10752	796753 10786 373 133789 20.40000028 132.359875195308 320 -1.125 1 168.59722219408 125.72434410968
vector 10753  Network.dyn_peer[27]  lookupTimeSig:vector  ETV
10753	807539 10334 373 133789 20.40000028 132.359875195308 320 0 1.5 138 78.54
vector 10757  Network.dyn_peer[29]  lookupHopsSig:vector  ETV
10757	846611 9541 379 133988 20.4000003 132.657631856319 313 0 16 1150 6558
vector 10758  Network.dyn_peer[29]  lookupStabilitySig:vector  ETV
10758	856152 10582 379 133988 20.4000003 132.657631856319 313 -1 1 169.29166665673 128.0225694312
vector 10759  Network.dyn_peer[29]  lookupTimeSig:vector  ETV
10759	866734 10130 379 133988 20.4000003 132.657631856319 313 0 1.5 132.6 76.86
vector 10685  Network.dyn_peer[5]  lookupHopsSig:vector  ETV
10685	147872 8969 407 132875 20.50000006 131.528143714591 295 0 17 1284 8248
vector 10686  Network.dyn_peer[5]  lookupStabilitySig:vector  ETV
10686	156841 9978 407 132875 20.50000006 131.528143714591 295 -1.125 1 134.55555555224 102.93364197163
vector 10687  Network.dyn_peer[5]  lookupTimeSig:vector  ETV
10687	166819 9520 407 132875 20.50000006 131.528143714591 295 0 1.5 142.9 91.81
vector 10718  Network.dyn_peer[16]  lookupHopsSig:vector  ETV
10718	464893 9063 421 133913 20.50000017 132.531521140964 299 0 25 1265 8435
vector 10719  Network.dyn_peer[16]  lookupStabilitySig:vector  ETV
10719	473956 10035 421 133913 20.50000017 132.531521140964 299 -2.125 1 140.875 114.546875
vector 10720  Network.dyn_peer[16]  lookupTimeSig:vector  ETV
10720	483991 9620 421 133913 20.50000017 132.531521140964 299 0 2.4 140.8 91
