version 2
run Stability-56-20130528-00:53:43-21385
attr configname Stability
attr datetime 20130528-00:53:43
attr experiment Stability
attr inifile omnetpp.ini
attr iterationvars $0=1e1
attr iterationvars2 "$0=1e1, $repetition=6"
attr measurement $0=1e1
attr network Network
attr processid 21385
attr repetition 6
attr replication #6
attr resultdir results
attr runnumber 56
attr seedset 56

vector 5528  Network.churner  inGoingSizeSig:vector  ETV
vector 5435  Network.dyn_peer[1]  lookupHopsSig:vector  ETV
vector 5436  Network.dyn_peer[1]  lookupStabilitySig:vector  ETV
vector 5437  Network.dyn_peer[1]  lookupTimeSig:vector  ETV
vector 5432  Network.dyn_peer[0]  lookupHopsSig:vector  ETV
vector 5433  Network.dyn_peer[0]  lookupStabilitySig:vector  ETV
vector 5434  Network.dyn_peer[0]  lookupTimeSig:vector  ETV
vector 5438  Network.dyn_peer[2]  lookupHopsSig:vector  ETV
vector 5439  Network.dyn_peer[2]  lookupStabilitySig:vector  ETV
vector 5440  Network.dyn_peer[2]  lookupTimeSig:vector  ETV
vector 5453  Network.dyn_peer[7]  lookupHopsSig:vector  ETV
vector 5454  Network.dyn_peer[7]  lookupStabilitySig:vector  ETV
vector 5455  Network.dyn_peer[7]  lookupTimeSig:vector  ETV
vector 5444  Network.dyn_peer[4]  lookupHopsSig:vector  ETV
vector 5445  Network.dyn_peer[4]  lookupStabilitySig:vector  ETV
vector 5446  Network.dyn_peer[4]  lookupTimeSig:vector  ETV
vector 5447  Network.dyn_peer[5]  lookupHopsSig:vector  ETV
vector 5448  Network.dyn_peer[5]  lookupStabilitySig:vector  ETV
vector 5449  Network.dyn_peer[5]  lookupTimeSig:vector  ETV
vector 5450  Network.dyn_peer[6]  lookupHopsSig:vector  ETV
vector 5451  Network.dyn_peer[6]  lookupStabilitySig:vector  ETV
vector 5452  Network.dyn_peer[6]  lookupTimeSig:vector  ETV
vector 5486  Network.dyn_peer[18]  lookupHopsSig:vector  ETV
vector 5487  Network.dyn_peer[18]  lookupStabilitySig:vector  ETV
vector 5488  Network.dyn_peer[18]  lookupTimeSig:vector  ETV
vector 5516  Network.dyn_peer[28]  lookupHopsSig:vector  ETV
vector 5517  Network.dyn_peer[28]  lookupStabilitySig:vector  ETV
vector 5518  Network.dyn_peer[28]  lookupTimeSig:vector  ETV
vector 5468  Network.dyn_peer[12]  lookupHopsSig:vector  ETV
vector 5469  Network.dyn_peer[12]  lookupStabilitySig:vector  ETV
vector 5470  Network.dyn_peer[12]  lookupTimeSig:vector  ETV
vector 5441  Network.dyn_peer[3]  lookupHopsSig:vector  ETV
vector 5442  Network.dyn_peer[3]  lookupStabilitySig:vector  ETV
vector 5443  Network.dyn_peer[3]  lookupTimeSig:vector  ETV
vector 5501  Network.dyn_peer[23]  lookupHopsSig:vector  ETV
vector 5502  Network.dyn_peer[23]  lookupStabilitySig:vector  ETV
vector 5503  Network.dyn_peer[23]  lookupTimeSig:vector  ETV
vector 5480  Network.dyn_peer[16]  lookupHopsSig:vector  ETV
vector 5481  Network.dyn_peer[16]  lookupStabilitySig:vector  ETV
vector 5482  Network.dyn_peer[16]  lookupTimeSig:vector  ETV
vector 5483  Network.dyn_peer[17]  lookupHopsSig:vector  ETV
vector 5484  Network.dyn_peer[17]  lookupStabilitySig:vector  ETV
vector 5485  Network.dyn_peer[17]  lookupTimeSig:vector  ETV
vector 5459  Network.dyn_peer[9]  lookupHopsSig:vector  ETV
vector 5460  Network.dyn_peer[9]  lookupStabilitySig:vector  ETV
vector 5461  Network.dyn_peer[9]  lookupTimeSig:vector  ETV
vector 5489  Network.dyn_peer[19]  lookupHopsSig:vector  ETV
vector 5490  Network.dyn_peer[19]  lookupStabilitySig:vector  ETV
vector 5491  Network.dyn_peer[19]  lookupTimeSig:vector  ETV
vector 5462  Network.dyn_peer[10]  lookupHopsSig:vector  ETV
vector 5463  Network.dyn_peer[10]  lookupStabilitySig:vector  ETV
vector 5464  Network.dyn_peer[10]  lookupTimeSig:vector  ETV
vector 5492  Network.dyn_peer[20]  lookupHopsSig:vector  ETV
vector 5493  Network.dyn_peer[20]  lookupStabilitySig:vector  ETV
vector 5494  Network.dyn_peer[20]  lookupTimeSig:vector  ETV
vector 5465  Network.dyn_peer[11]  lookupHopsSig:vector  ETV
vector 5466  Network.dyn_peer[11]  lookupStabilitySig:vector  ETV
vector 5467  Network.dyn_peer[11]  lookupTimeSig:vector  ETV
vector 5498  Network.dyn_peer[22]  lookupHopsSig:vector  ETV
vector 5499  Network.dyn_peer[22]  lookupStabilitySig:vector  ETV
vector 5500  Network.dyn_peer[22]  lookupTimeSig:vector  ETV
vector 5471  Network.dyn_peer[13]  lookupHopsSig:vector  ETV
vector 5472  Network.dyn_peer[13]  lookupStabilitySig:vector  ETV
vector 5473  Network.dyn_peer[13]  lookupTimeSig:vector  ETV
vector 5474  Network.dyn_peer[14]  lookupHopsSig:vector  ETV
vector 5475  Network.dyn_peer[14]  lookupStabilitySig:vector  ETV
vector 5476  Network.dyn_peer[14]  lookupTimeSig:vector  ETV
vector 5513  Network.dyn_peer[27]  lookupHopsSig:vector  ETV
vector 5514  Network.dyn_peer[27]  lookupStabilitySig:vector  ETV
vector 5515  Network.dyn_peer[27]  lookupTimeSig:vector  ETV
vector 5495  Network.dyn_peer[21]  lookupHopsSig:vector  ETV
vector 5496  Network.dyn_peer[21]  lookupStabilitySig:vector  ETV
vector 5497  Network.dyn_peer[21]  lookupTimeSig:vector  ETV
vector 5504  Network.dyn_peer[24]  lookupHopsSig:vector  ETV
vector 5505  Network.dyn_peer[24]  lookupStabilitySig:vector  ETV
vector 5506  Network.dyn_peer[24]  lookupTimeSig:vector  ETV
vector 5477  Network.dyn_peer[15]  lookupHopsSig:vector  ETV
vector 5478  Network.dyn_peer[15]  lookupStabilitySig:vector  ETV
vector 5479  Network.dyn_peer[15]  lookupTimeSig:vector  ETV
vector 5507  Network.dyn_peer[25]  lookupHopsSig:vector  ETV
vector 5508  Network.dyn_peer[25]  lookupStabilitySig:vector  ETV
vector 5509  Network.dyn_peer[25]  lookupTimeSig:vector  ETV
vector 5510  Network.dyn_peer[26]  lookupHopsSig:vector  ETV
vector 5511  Network.dyn_peer[26]  lookupStabilitySig:vector  ETV
vector 5512  Network.dyn_peer[26]  lookupTimeSig:vector  ETV
vector 5522  Network.dyn_peer[30]  lookupHopsSig:vector  ETV
vector 5523  Network.dyn_peer[30]  lookupStabilitySig:vector  ETV
vector 5524  Network.dyn_peer[30]  lookupTimeSig:vector  ETV
vector 5456  Network.dyn_peer[8]  lookupHopsSig:vector  ETV
vector 5457  Network.dyn_peer[8]  lookupStabilitySig:vector  ETV
vector 5458  Network.dyn_peer[8]  lookupTimeSig:vector  ETV
vector 5519  Network.dyn_peer[29]  lookupHopsSig:vector  ETV
vector 5520  Network.dyn_peer[29]  lookupStabilitySig:vector  ETV
vector 5521  Network.dyn_peer[29]  lookupTimeSig:vector  ETV
vector 5525  Network.dyn_peer[31]  lookupHopsSig:vector  ETV
vector 5526  Network.dyn_peer[31]  lookupStabilitySig:vector  ETV
vector 5527  Network.dyn_peer[31]  lookupTimeSig:vector  ETV
5432	64	20.11	1
5432	387	20.61	4
5432	821	21.223085193698	5
5432	1491	21.858914766455	6
5432	2176	22.326134305976	2
5432	2687	22.726134305976	3
5432	3186	23.227073051288	4
5432	3266	23.319738869178	2
5432	3515	23.572462189211	8
5432	3578	23.624411825488	2
5432	3678	23.721872910933	2
5432	3691	23.735998369209	4
5432	3976	23.949046729389	2
5432	4441	24.349046729389	3
5432	4997	24.753347985956	3
5432	5278	24.957705812153	1
5432	5415	25.072134933072	1
5432	5914	25.395555494625	1
5432	6924	26.195555494625	8
5432	7304	26.496286405268	2
5432	7619	26.717269255482	2
5432	7861	26.917269255482	1
5432	8715	27.692565669367	1
5432	9508	28.292565669367	6
5432	9797	28.50272839129	1
5432	10047	28.70683503628	1
5432	10087	28.738479786883	1
5432	10116	28.755101216092	0
5432	10346	28.955101216092	1
5432	10535	29.071987208624	1
5432	10748	29.271987208624	1
5432	10993	29.471987781933	1
5432	11001	29.476897811445	1
5432	11355	29.884660816637	3
5432	11389	29.928850253725	2
5432	11680	30.247750488459	3
5432	12101	30.647750488459	3
5432	12391	30.85483436316	1
5432	12715	31.162122577547	2
5432	12988	31.435136026339	2
5432	13642	32.053508454723	7
5432	14086	32.453508454723	3
5432	14614	32.868911585075	3
5432	15306	33.576886624363	6
5432	15884	34.082968068422	4
5432	15944	34.148903969282	4
5432	16117	34.354666290744	1
5432	16384	34.566129706606	2
5432	16776	34.874035499227	2
5432	17499	35.381575187016	5
5432	17521	35.390257420276	5
5432	17948	35.681893158338	3
5432	18012	35.708710416065	2
5432	18223	35.826376943875	1
5432	19131	36.526376943875	7
5432	19741	37.043187193341	4
5432	20990	38.053287193341	11
5432	21792	38.653287193341	6
5432	22286	38.970427093779	2
5432	23228	39.771195776388	7
5432	23420	39.963545974392	6
5432	23937	40.470063906618	4
5432	26151	42.282864818389	19
5432	26834	42.882864818389	5
5432	27708	43.579289443261	5
5432	27718	43.591097062958	6
5432	28233	43.994749462566	4
5432	28235	43.99513453036	4
5432	30645	45.80523453036	21
5432	31465	46.40523453036	5
5432	32144	46.913955983954	4
5432	32217	46.963420435106	3
5432	32230	46.968060956343	1
5432	32310	47.042219735989	1
5432	32763	47.355254049473	3
5432	34084	48.555254049473	12
5432	34381	48.758500687337	2
5432	34547	48.883916080268	2
5432	34670	48.984308971858	0
5432	34781	49.060805191531	2
5432	34933	49.192016520108	1
5432	35105	49.302116520108	1
5432	35778	49.894465862152	3
5432	36283	50.311881442251	4
5432	36601	50.611881442251	2
5432	37407	51.314858664671	7
5432	37542	51.428632062949	1
5432	37728	51.528632062949	0
5432	38346	52.037119000217	5
5432	38613	52.241422275761	1
5432	38951	52.551344485257	2
5432	39086	52.671086243148	1
5432	39403	52.971086243148	3
5432	39630	53.155767635193	2
5432	39692	53.237003105128	2
5432	39750	53.280923962159	3
5432	40047	53.506911744997	2
5432	40377	53.806911744997	2
5432	41844	54.914511510543	10
5432	42354	55.327718590304	4
5432	44136	56.827718590304	15
5432	44682	57.230251595335	4
5432	45492	57.838633097348	5
5432	45891	58.139732195002	3
5432	46566	58.547732699625	3
5432	47017	58.868173696999	6
5432	47108	58.95065960244	3
5432	47263	59.064440930685	1
5432	47603	59.364440930685	2
5432	48087	59.783187323196	4
5432	48280	59.983187323196	1
5432	48650	60.291399823086	2
5432	49566	61.096205128225	7
5432	49747	61.221926807042	3
5432	49895	61.29933767102	1
5432	50223	61.516438091749	3
5432	51087	62.216438091749	6
5432	51604	62.625895715358	3
5432	51862	62.840505457323	2
5432	52124	63.03685438532	3
5432	52167	63.049223230882	1
5432	52172	63.051044739895	1
5432	52346	63.168968711766	1
5432	52551	63.368968711766	1
5432	53027	63.774045293008	3
5432	53420	64.17711888555	3
5432	53921	64.680146185036	4
5432	53960	64.713837854899	7
5432	54020	64.801626772538	4
5432	54565	65.217868082974	4
5432	55005	65.617868082974	3
5432	55765	66.243095615025	5
5432	56113	66.556430173831	2
5432	56491	66.866530173831	4
5432	57470	67.666530173831	9
5432	57793	67.876349792532	1
5432	58490	68.386153852287	5
5432	59705	69.196253852287	9
5432	60164	69.596253852287	3
5432	60676	70.008217781331	3
5432	60781	70.086407883026	3
5432	61224	70.49477591859	3
5432	61237	70.514536592818	3
5432	61244	70.519904001784	5
5432	61590	70.833169075849	4
5432	61812	71.033169075849	1
5432	62606	71.738773035968	6
5432	62848	71.940306054674	1
5432	62878	71.95422566457	0
5432	63152	72.15422566457	1
5432	63291	72.26432566457	1
5432	63947	72.76432566457	4
5432	64336	73.065154401599	2
5432	65022	73.573758778685	4
5432	65102	73.644766228572	4
5432	65293	73.75897572818	1
5432	65765	74.05897572818	2
5432	66412	74.57613213461	4
5432	67040	75.086429128786	4
5432	67254	75.276767757649	2
5432	67509	75.489521518731	2
5432	68230	76.089521518731	5
5432	69239	76.989714965077	8
5432	70592	78.195836398388	1
5432	71233	78.70630595017	5
5432	71758	79.10630595017	4
5432	72214	79.423773457095	3
5432	72298	79.510440570123	3
5432	72624	79.748684728368	4
5432	73087	80.161573171872	4
5432	73870	80.761573171872	6
5432	74360	81.170821241231	4
5432	74405	81.206391164041	3
5432	74949	81.615514158294	3
5432	75089	81.731989858454	1
5432	75478	82.031989858454	2
5432	75715	82.232982037671	1
5432	76276	82.75155632733	4
5432	76935	83.357188736164	5
5432	77162	83.566057743149	1
5432	77776	84.076157743149	5
5432	79289	85.376157743149	15
5432	80158	86.178001151213	8
5432	80426	86.399468533247	1
5432	80521	86.48167527843	2
5432	81294	87.094823227487	6
5432	82121	87.894823227487	7
5432	82356	88.110131692019	2
5432	83570	89.217369662016	4
5432	84453	89.917369662016	6
5432	84910	90.324732034679	3
5432	85385	90.737852827063	4
5432	85733	91.037852827063	2
5432	86167	91.444302616323	3
5432	86700	91.859023889739	4
5432	87106	92.259023889739	3
5432	87424	92.559209130288	4
5432	87477	92.633861456416	2
5432	87833	92.937074015846	2
5432	88611	93.540229377493	5
5432	88613	93.541299740485	5
5432	89651	94.366470566638	8
5432	90893	95.375615279915	2
5432	91141	95.566470566638	11
5432	91273	95.683249582623	3
5432	91357	95.773503580881	1
5432	91659	95.993488459014	2
5432	91906	96.193488459014	1
5432	92144	96.400784664363	1
5432	92685	96.890760900861	1
5432	93379	97.490760900861	5
5432	93635	97.693742128944	1
5432	93765	97.804925761365	1
5432	94392	98.304925761365	4
5432	96652	100.08733152705	19
5432	97002	100.39552146719	2
5432	99210	102.211473976398	19
5432	100272	103.062204573019	2
5432	101362	103.975316616235	9
5432	102257	104.875316616235	8
5432	102771	105.2817844615	4
5432	102906	105.389907956381	4
5432	104789	106.801942570059	16
5432	105664	107.601942570059	7
5432	105905	107.806748325711	1
5432	106287	108.116598555832	2
5432	106529	108.328419647406	2
5432	107050	108.748491072784	5
5432	107282	108.948491072784	1
5432	108308	109.76617848181	1
5432	109221	110.36617848181	6
5432	109426	110.480219891702	5
5432	109995	110.975725691773	6
5432	110594	111.491748114537	5
5432	111204	112.091748114537	5
5432	112111	112.893393599299	8
5432	112505	113.21184115812	2
5432	112551	113.268490364731	2
5432	112584	113.288523218638	9
5432	113250	113.813018217653	5
5432	114026	114.413018217653	5
5432	114522	114.816987775841	3
5432	114750	115.017515468089	1
5432	114853	115.099214156587	1
5432	114926	115.135116598312	1
5432	115164	115.346595676889	2
5432	115401	115.546595676889	1
5432	115979	116.050376367062	4
5432	116348	116.351668223473	2
5432	116381	116.363446257288	0
5432	116966	116.766124679533	3
5432	117224	116.963537279745	3
5432	118253	117.683646257288	8
5432	119208	118.483646257288	7
5432	119693	118.884197847485	3
5432	120073	119.190511410728	2
5432	120187	119.279037167249	1
5432	120477	119.496940036672	2
5432	120972	119.896940036672	3
5432	121276	120.204099488195	3
5432	121500	120.407208303652	1
5432	122201	121.011489120105	5
5432	122520	121.305492983735	6
5432	122766	121.524960846805	2
5432	123952	122.624960846805	10
5432	124557	123.142305616942	4
5432	124865	123.352405616942	2
5432	125677	124.152405616942	7
5432	125709	124.162505616942	0
5432	126025	124.473969634875	2
5432	126844	125.182486085478	8
5432	126850	125.184241064382	7
5432	126959	125.285690252115	1
5432	126972	125.291691257679	1
5432	127298	125.503197960783	3
5432	127845	125.903197960783	3
5432	128228	126.206684581941	2
5432	129084	126.907545579769	4
5432	129555	127.226497629817	4
5432	130007	127.626497629817	3
5432	130155	127.786235770539	2
5432	130281	127.911073564026	2
5432	130469	128.03546023693	4
5432	130673	128.217027923146	4
5432	130748	128.286450696822	4
5432	130999	128.502436624629	2
5432	131344	128.802436624629	2
5432	131584	128.979525171851	0
5432	132947	130.013598304124	5
5432	134105	131.013598304124	9
5432	135085	131.819983720072	6
5432	135243	131.930664130646	1
5432	135807	132.430664130646	5
5432	136280	132.833029116756	3
5432	136843	133.339739322425	5
5432	137198	133.745996939698	3
5432	137228	133.795971642596	3
5432	137385	133.996294789182	1
5433	64	20.11	0.875
5433	387	20.61	0.5
5433	821	21.223085193698	0.375
5433	1491	21.858914766455	0.25
5433	2176	22.326134305976	0.75
5433	2687	22.726134305976	0.625
5433	3186	23.227073051288	0.5
5433	3266	23.319738869178	0.75
5433	3515	23.572462189211	0
5433	3578	23.624411825488	0.75
5433	3678	23.721872910933	0.75
5433	3691	23.735998369209	0.5
5433	3976	23.949046729389	0.75
5433	4441	24.349046729389	0.625
5433	4997	24.753347985956	0.625
5433	5278	24.957705812153	0.875
5433	5415	25.072134933072	0.875
5433	5914	25.395555494625	0.875
5433	6924	26.195555494625	0
5433	7304	26.496286405268	0.75
5433	7619	26.717269255482	0.75
5433	7861	26.917269255482	0.875
5433	8715	27.692565669367	0.875
5433	9508	28.292565669367	0.25
5433	9797	28.50272839129	0.875
5433	10047	28.70683503628	0.875
5433	10087	28.738479786883	0.875
5433	10116	28.755101216092	1
5433	10346	28.955101216092	0.875
5433	10535	29.071987208624	0.875
5433	10748	29.271987208624	0.88888888806105
5433	10993	29.471987781933	0.875
5433	11001	29.476897811445	0.875
5433	11355	29.884660816637	0.625
5433	11389	29.928850253725	0.75
5433	11680	30.247750488459	0.625
5433	12101	30.647750488459	0.625
5433	12391	30.85483436316	0.875
5433	12715	31.162122577547	0.75
5433	12988	31.435136026339	0.75
5433	13642	32.053508454723	0.125
5433	14086	32.453508454723	0.625
5433	14614	32.868911585075	0.625
5433	15306	33.576886624363	0.25
5433	15884	34.082968068422	0.5
5433	15944	34.148903969282	0.5
5433	16117	34.354666290744	0.875
5433	16384	34.566129706606	0.75
5433	16776	34.874035499227	0.75
5433	17499	35.381575187016	0.375
5433	17521	35.390257420276	0.375
5433	17948	35.681893158338	0.625
5433	18012	35.708710416065	0.75
5433	18223	35.826376943875	0.875
5433	19131	36.526376943875	0.125
5433	19741	37.043187193341	0.5
5433	20990	38.053287193341	-0.375
5433	21792	38.653287193341	0.25
5433	22286	38.970427093779	0.75
5433	23228	39.771195776388	0.125
5433	23420	39.963545974392	0.25
5433	23937	40.470063906618	0.5
5433	26151	42.282864818389	-1.375
5433	26834	42.882864818389	0.375
5433	27708	43.579289443261	0.375
5433	27718	43.591097062958	0.25
5433	28233	43.994749462566	0.5
5433	28235	43.99513453036	0.5
5433	30645	45.80523453036	-1.625
5433	31465	46.40523453036	0.375
5433	32144	46.913955983954	0.5
5433	32217	46.963420435106	0.625
5433	32230	46.968060956343	0.875
5433	32310	47.042219735989	0.875
5433	32763	47.355254049473	0.625
5433	34084	48.555254049473	-0.5
5433	34381	48.758500687337	0.75
5433	34547	48.883916080268	0.75
5433	34670	48.984308971858	1
5433	34781	49.060805191531	0.75
5433	34933	49.192016520108	0.875
5433	35105	49.302116520108	0.875
5433	35778	49.894465862152	0.625
5433	36283	50.311881442251	0.5
5433	36601	50.611881442251	0.75
5433	37407	51.314858664671	0.125
5433	37542	51.428632062949	0.875
5433	37728	51.528632062949	1
5433	38346	52.037119000217	0.375
5433	38613	52.241422275761	0.875
5433	38951	52.551344485257	0.75
5433	39086	52.671086243148	0.875
5433	39403	52.971086243148	0.625
5433	39630	53.155767635193	0.75
5433	39692	53.237003105128	0.75
5433	39750	53.280923962159	0.625
5433	40047	53.506911744997	0.75
5433	40377	53.806911744997	0.75
5433	41844	54.914511510543	-0.25
5433	42354	55.327718590304	0.5
5433	44136	56.827718590304	-0.875
5433	44682	57.230251595335	0.5
5433	45492	57.838633097348	0.375
5433	45891	58.139732195002	0.625
5433	46566	58.547732699625	0.625
5433	47017	58.868173696999	0.25
5433	47108	58.95065960244	0.625
5433	47263	59.064440930685	0.875
5433	47603	59.364440930685	0.75
5433	48087	59.783187323196	0.5
5433	48280	59.983187323196	0.875
5433	48650	60.291399823086	0.75
5433	49566	61.096205128225	0.125
5433	49747	61.221926807042	0.625
5433	49895	61.29933767102	0.875
5433	50223	61.516438091749	0.625
5433	51087	62.216438091749	0.25
5433	51604	62.625895715358	0.625
5433	51862	62.840505457323	0.75
5433	52124	63.03685438532	0.625
5433	52167	63.049223230882	0.875
5433	52172	63.051044739895	0.875
5433	52346	63.168968711766	0.875
5433	52551	63.368968711766	0.875
5433	53027	63.774045293008	0.625
5433	53420	64.17711888555	0.625
5433	53921	64.680146185036	0.5
5433	53960	64.713837854899	0.125
5433	54020	64.801626772538	0.5
5433	54565	65.217868082974	0.5
5433	55005	65.617868082974	0.625
5433	55765	66.243095615025	0.375
5433	56113	66.556430173831	0.75
5433	56491	66.866530173831	0.5
5433	57470	67.666530173831	-0.125
5433	57793	67.876349792532	0.875
5433	58490	68.386153852287	0.375
5433	59705	69.196253852287	-0.125
5433	60164	69.596253852287	0.625
5433	60676	70.008217781331	0.625
5433	60781	70.086407883026	0.625
5433	61224	70.49477591859	0.625
5433	61237	70.514536592818	0.625
5433	61244	70.519904001784	0.375
5433	61590	70.833169075849	0.5
5433	61812	71.033169075849	0.875
5433	62606	71.738773035968	0.25
5433	62848	71.940306054674	0.875
5433	62878	71.95422566457	1
5433	63152	72.15422566457	0.875
5433	63291	72.26432566457	0.875
5433	63947	72.76432566457	0.5
5433	64336	73.065154401599	0.75
5433	65022	73.573758778685	0.5
5433	65102	73.644766228572	0.5
5433	65293	73.75897572818	0.875
5433	65765	74.05897572818	0.75
5433	66412	74.57613213461	0.5
5433	67040	75.086429128786	0.5
5433	67254	75.276767757649	0.75
5433	67509	75.489521518731	0.75
5433	68230	76.089521518731	0.375
5433	69239	76.989714965077	0
5433	70592	78.195836398388	0.875
5433	71233	78.70630595017	0.375
5433	71758	79.10630595017	0.5
5433	72214	79.423773457095	0.625
5433	72298	79.510440570123	0.625
5433	72624	79.748684728368	0.5
5433	73087	80.161573171872	0.5
5433	73870	80.761573171872	0.25
5433	74360	81.170821241231	0.5
5433	74405	81.206391164041	0.625
5433	74949	81.615514158294	0.625
5433	75089	81.731989858454	0.875
5433	75478	82.031989858454	0.75
5433	75715	82.232982037671	0.875
5433	76276	82.75155632733	0.5
5433	76935	83.357188736164	0.375
5433	77162	83.566057743149	0.875
5433	77776	84.076157743149	0.375
5433	79289	85.376157743149	-0.875
5433	80158	86.178001151213	0
5433	80426	86.399468533247	0.875
5433	80521	86.48167527843	0.75
5433	81294	87.094823227487	0.25
5433	82121	87.894823227487	0.125
5433	82356	88.110131692019	0.75
5433	83570	89.217369662016	0.5
5433	84453	89.917369662016	0.25
5433	84910	90.324732034679	0.625
5433	85385	90.737852827063	0.5
5433	85733	91.037852827063	0.75
5433	86167	91.444302616323	0.625
5433	86700	91.859023889739	0.5
5433	87106	92.259023889739	0.625
5433	87424	92.559209130288	0.5
5433	87477	92.633861456416	0.75
5433	87833	92.937074015846	0.75
5433	88611	93.540229377493	0.375
5433	88613	93.541299740485	0.375
5433	89651	94.366470566638	0
5433	90893	95.375615279915	0.75
5433	91141	95.566470566638	-0.375
5433	91273	95.683249582623	0.625
5433	91357	95.773503580881	0.875
5433	91659	95.993488459014	0.75
5433	91906	96.193488459014	0.875
5433	92144	96.400784664363	0.875
5433	92685	96.890760900861	0.875
5433	93379	97.490760900861	0.375
5433	93635	97.693742128944	0.875
5433	93765	97.804925761365	0.875
5433	94392	98.304925761365	0.5
5433	96652	100.08733152705	-1.375
5433	97002	100.39552146719	0.75
5433	99210	102.211473976398	-1.375
5433	100272	103.062204573019	0.75
5433	101362	103.975316616235	-0.125
5433	102257	104.875316616235	0
5433	102771	105.2817844615	0.5
5433	102906	105.389907956381	0.5
5433	104789	106.801942570059	-1
5433	105664	107.601942570059	0.125
5433	105905	107.806748325711	0.875
5433	106287	108.116598555832	0.75
5433	106529	108.328419647406	0.75
5433	107050	108.748491072784	0.375
5433	107282	108.948491072784	0.875
5433	108308	109.76617848181	0.875
5433	109221	110.36617848181	0.25
5433	109426	110.480219891702	0.375
5433	109995	110.975725691773	0.25
5433	110594	111.491748114537	0.375
5433	111204	112.091748114537	0.375
5433	112111	112.893393599299	0
5433	112505	113.21184115812	0.75
5433	112551	113.268490364731	0.75
5433	112584	113.288523218638	-0.125
5433	113250	113.813018217653	0.375
5433	114026	114.413018217653	0.375
5433	114522	114.816987775841	0.625
5433	114750	115.017515468089	0.875
5433	114853	115.099214156587	0.875
5433	114926	115.135116598312	0.875
5433	115164	115.346595676889	0.75
5433	115401	115.546595676889	0.875
5433	115979	116.050376367062	0.5
5433	116348	116.351668223473	0.75
5433	116381	116.363446257288	1
5433	116966	116.766124679533	0.625
5433	117224	116.963537279745	0.625
5433	118253	117.683646257288	0
5433	119208	118.483646257288	0.125
5433	119693	118.884197847485	0.625
5433	120073	119.190511410728	0.75
5433	120187	119.279037167249	0.875
5433	120477	119.496940036672	0.75
5433	120972	119.896940036672	0.625
5433	121276	120.204099488195	0.625
5433	121500	120.407208303652	0.875
5433	122201	121.011489120105	0.375
5433	122520	121.305492983735	0.25
5433	122766	121.524960846805	0.75
5433	123952	122.624960846805	-0.25
5433	124557	123.142305616942	0.5
5433	124865	123.352405616942	0.75
5433	125677	124.152405616942	0.125
5433	125709	124.162505616942	1
5433	126025	124.473969634875	0.75
5433	126844	125.182486085478	0
5433	126850	125.184241064382	0.125
5433	126959	125.285690252115	0.875
5433	126972	125.291691257679	0.875
5433	127298	125.503197960783	0.625
5433	127845	125.903197960783	0.625
5433	128228	126.206684581941	0.75
5433	129084	126.907545579769	0.5
5433	129555	127.226497629817	0.5
5433	130007	127.626497629817	0.625
5433	130155	127.786235770539	0.75
5433	130281	127.911073564026	0.75
5433	130469	128.03546023693	0.5
5433	130673	128.217027923146	0.5
5433	130748	128.286450696822	0.5
5433	130999	128.502436624629	0.75
5433	131344	128.802436624629	0.75
5433	131584	128.979525171851	1
5433	132947	130.013598304124	0.375
5433	134105	131.013598304124	-0.125
5433	135085	131.819983720072	0.25
5433	135243	131.930664130646	0.875
5433	135807	132.430664130646	0.375
5433	136280	132.833029116756	0.625
5433	136843	133.339739322425	0.375
5433	137198	133.745996939698	0.625
5433	137228	133.795971642596	0.625
5433	137385	133.996294789182	0.875
5434	64	20.11	0.1
5434	387	20.61	0.5
5434	821	21.223085193698	0.6
5434	1491	21.858914766455	0.7
5434	2176	22.326134305976	0.2
5434	2687	22.726134305976	0.4
5434	3186	23.227073051288	0.5
5434	3266	23.319738869178	0.3
5434	3515	23.572462189211	0.6
5434	3578	23.624411825488	0.3
5434	3678	23.721872910933	0.3
5434	3691	23.735998369209	0.5
5434	3976	23.949046729389	0.2
5434	4441	24.349046729389	0.4
5434	4997	24.753347985956	0.4
5434	5278	24.957705812153	0.2
5434	5415	25.072134933072	0.1
5434	5914	25.395555494625	0.1
5434	6924	26.195555494625	0.8
5434	7304	26.496286405268	0.3
5434	7619	26.717269255482	0.2
5434	7861	26.917269255482	0.2
5434	8715	27.692565669367	0.1
5434	9508	28.292565669367	0.6
5434	9797	28.50272839129	0.2
5434	10047	28.70683503628	0.2
5434	10087	28.738479786883	0.2
5434	10116	28.755101216092	0
5434	10346	28.955101216092	0.2
5434	10535	29.071987208624	0.1
5434	10748	29.271987208624	0.2
5434	10993	29.471987781933	0.2
5434	11001	29.476897811445	0.2
5434	11355	29.884660816637	0.4
5434	11389	29.928850253725	0.3
5434	11680	30.247750488459	0.3
5434	12101	30.647750488459	0.4
5434	12391	30.85483436316	0.2
5434	12715	31.162122577547	0.3
5434	12988	31.435136026339	0.3
5434	13642	32.053508454723	0.6
5434	14086	32.453508454723	0.4
5434	14614	32.868911585075	0.4
5434	15306	33.576886624363	0.7
5434	15884	34.082968068422	0.5
5434	15944	34.148903969282	0.5
5434	16117	34.354666290744	0.2
5434	16384	34.566129706606	0.2
5434	16776	34.874035499227	0.3
5434	17499	35.381575187016	0.5
5434	17521	35.390257420276	0.5
5434	17948	35.681893158338	0.3
5434	18012	35.708710416065	0.3
5434	18223	35.826376943875	0.1
5434	19131	36.526376943875	0.7
5434	19741	37.043187193341	0.5
5434	20990	38.053287193341	1
5434	21792	38.653287193341	0.6
5434	22286	38.970427093779	0.3
5434	23228	39.771195776388	0.8
5434	23420	39.963545974392	0.7
5434	23937	40.470063906618	0.5
5434	26151	42.282864818389	1.8
5434	26834	42.882864818389	0.6
5434	27708	43.579289443261	0.6
5434	27718	43.591097062958	0.7
5434	28233	43.994749462566	0.4
5434	28235	43.99513453036	0.4
5434	30645	45.80523453036	1.8
5434	31465	46.40523453036	0.6
5434	32144	46.913955983954	0.5
5434	32217	46.963420435106	0.4
5434	32230	46.968060956343	0.2
5434	32310	47.042219735989	0.1
5434	32763	47.355254049473	0.3
5434	34084	48.555254049473	1.2
5434	34381	48.758500687337	0.2
5434	34547	48.883916080268	0.3
5434	34670	48.984308971858	0.1
5434	34781	49.060805191531	0.3
5434	34933	49.192016520108	0.2
5434	35105	49.302116520108	0.1
5434	35778	49.894465862152	0.4
5434	36283	50.311881442251	0.4
5434	36601	50.611881442251	0.3
5434	37407	51.314858664671	0.7
5434	37542	51.428632062949	0.1
5434	37728	51.528632062949	0.1
5434	38346	52.037119000217	0.5
5434	38613	52.241422275761	0.2
5434	38951	52.551344485257	0.3
5434	39086	52.671086243148	0.1
5434	39403	52.971086243148	0.3
5434	39630	53.155767635193	0.3
5434	39692	53.237003105128	0.3
5434	39750	53.280923962159	0.3
5434	40047	53.506911744997	0.2
5434	40377	53.806911744997	0.3
5434	41844	54.914511510543	1.1
5434	42354	55.327718590304	0.4
5434	44136	56.827718590304	1.5
5434	44682	57.230251595335	0.4
5434	45492	57.838633097348	0.6
5434	45891	58.139732195002	0.3
5434	46566	58.547732699625	0.4
5434	47017	58.868173696999	0.7
5434	47108	58.95065960244	0.4
5434	47263	59.064440930685	0.1
5434	47603	59.364440930685	0.3
5434	48087	59.783187323196	0.4
5434	48280	59.983187323196	0.2
5434	48650	60.291399823086	0.3
5434	49566	61.096205128225	0.8
5434	49747	61.221926807042	0.4
5434	49895	61.29933767102	0.2
5434	50223	61.516438091749	0.2
5434	51087	62.216438091749	0.7
5434	51604	62.625895715358	0.4
5434	51862	62.840505457323	0.3
5434	52124	63.03685438532	0.4
5434	52167	63.049223230882	0.2
5434	52172	63.051044739895	0.2
5434	52346	63.168968711766	0.1
5434	52551	63.368968711766	0.2
5434	53027	63.774045293008	0.4
5434	53420	64.17711888555	0.4
5434	53921	64.680146185036	0.5
5434	53960	64.713837854899	0.6
5434	54020	64.801626772538	0.5
5434	54565	65.217868082974	0.4
5434	55005	65.617868082974	0.4
5434	55765	66.243095615025	0.6
5434	56113	66.556430173831	0.3
5434	56491	66.866530173831	0.3
5434	57470	67.666530173831	0.8
5434	57793	67.876349792532	0.2
5434	58490	68.386153852287	0.5
5434	59705	69.196253852287	0.8
5434	60164	69.596253852287	0.4
5434	60676	70.008217781331	0.4
5434	60781	70.086407883026	0.4
5434	61224	70.49477591859	0.4
5434	61237	70.514536592818	0.4
5434	61244	70.519904001784	0.5
5434	61590	70.833169075849	0.3
5434	61812	71.033169075849	0.2
5434	62606	71.738773035968	0.7
5434	62848	71.940306054674	0.2
5434	62878	71.95422566457	0
5434	63152	72.15422566457	0.2
5434	63291	72.26432566457	0.1
5434	63947	72.76432566457	0.5
5434	64336	73.065154401599	0.3
5434	65022	73.573758778685	0.5
5434	65102	73.644766228572	0.5
5434	65293	73.75897572818	0.1
5434	65765	74.05897572818	0.3
5434	66412	74.57613213461	0.5
5434	67040	75.086429128786	0.5
5434	67254	75.276767757649	0.3
5434	67509	75.489521518731	0.2
5434	68230	76.089521518731	0.6
5434	69239	76.989714965077	0.9
5434	70592	78.195836398388	0.2
5434	71233	78.70630595017	0.5
5434	71758	79.10630595017	0.4
5434	72214	79.423773457095	0.3