version 2
run Stability-116-20130528-00:58:12-21385
attr configname Stability
attr datetime 20130528-00:58:12
attr experiment Stability
attr inifile omnetpp.ini
attr iterationvars $0=1e-5
attr iterationvars2 "$0=1e-5, $repetition=6"
attr measurement $0=1e-5
attr network Network
attr processid 21385
attr repetition 6
attr replication #6
attr resultdir results
attr runnumber 116
attr seedset 116

vector 11348  Network.churner  inGoingSizeSig:vector  ETV
vector 11276  Network.dyn_peer[8]  lookupHopsSig:vector  ETV
vector 11277  Network.dyn_peer[8]  lookupStabilitySig:vector  ETV
vector 11278  Network.dyn_peer[8]  lookupTimeSig:vector  ETV
vector 11279  Network.dyn_peer[9]  lookupHopsSig:vector  ETV
vector 11280  Network.dyn_peer[9]  lookupStabilitySig:vector  ETV
vector 11281  Network.dyn_peer[9]  lookupTimeSig:vector  ETV
vector 11282  Network.dyn_peer[10]  lookupHopsSig:vector  ETV
vector 11283  Network.dyn_peer[10]  lookupStabilitySig:vector  ETV
vector 11284  Network.dyn_peer[10]  lookupTimeSig:vector  ETV
vector 11288  Network.dyn_peer[12]  lookupHopsSig:vector  ETV
vector 11289  Network.dyn_peer[12]  lookupStabilitySig:vector  ETV
vector 11290  Network.dyn_peer[12]  lookupTimeSig:vector  ETV
vector 11324  Network.dyn_peer[24]  lookupHopsSig:vector  ETV
vector 11325  Network.dyn_peer[24]  lookupStabilitySig:vector  ETV
vector 11326  Network.dyn_peer[24]  lookupTimeSig:vector  ETV
vector 11252  Network.dyn_peer[0]  lookupHopsSig:vector  ETV
vector 11253  Network.dyn_peer[0]  lookupStabilitySig:vector  ETV
vector 11254  Network.dyn_peer[0]  lookupTimeSig:vector  ETV
vector 11261  Network.dyn_peer[3]  lookupHopsSig:vector  ETV
vector 11262  Network.dyn_peer[3]  lookupStabilitySig:vector  ETV
vector 11263  Network.dyn_peer[3]  lookupTimeSig:vector  ETV
vector 11270  Network.dyn_peer[6]  lookupHopsSig:vector  ETV
vector 11271  Network.dyn_peer[6]  lookupStabilitySig:vector  ETV
vector 11272  Network.dyn_peer[6]  lookupTimeSig:vector  ETV
vector 11285  Network.dyn_peer[11]  lookupHopsSig:vector  ETV
vector 11286  Network.dyn_peer[11]  lookupStabilitySig:vector  ETV
vector 11287  Network.dyn_peer[11]  lookupTimeSig:vector  ETV
vector 11294  Network.dyn_peer[14]  lookupHopsSig:vector  ETV
vector 11295  Network.dyn_peer[14]  lookupStabilitySig:vector  ETV
vector 11296  Network.dyn_peer[14]  lookupTimeSig:vector  ETV
vector 11306  Network.dyn_peer[18]  lookupHopsSig:vector  ETV
vector 11307  Network.dyn_peer[18]  lookupStabilitySig:vector  ETV
vector 11308  Network.dyn_peer[18]  lookupTimeSig:vector  ETV
vector 11312  Network.dyn_peer[20]  lookupHopsSig:vector  ETV
vector 11313  Network.dyn_peer[20]  lookupStabilitySig:vector  ETV
vector 11314  Network.dyn_peer[20]  lookupTimeSig:vector  ETV
vector 11318  Network.dyn_peer[22]  lookupHopsSig:vector  ETV
vector 11319  Network.dyn_peer[22]  lookupStabilitySig:vector  ETV
vector 11320  Network.dyn_peer[22]  lookupTimeSig:vector  ETV
vector 11345  Network.dyn_peer[31]  lookupHopsSig:vector  ETV
vector 11346  Network.dyn_peer[31]  lookupStabilitySig:vector  ETV
vector 11347  Network.dyn_peer[31]  lookupTimeSig:vector  ETV
vector 11255  Network.dyn_peer[1]  lookupHopsSig:vector  ETV
vector 11256  Network.dyn_peer[1]  lookupStabilitySig:vector  ETV
vector 11257  Network.dyn_peer[1]  lookupTimeSig:vector  ETV
vector 11258  Network.dyn_peer[2]  lookupHopsSig:vector  ETV
vector 11259  Network.dyn_peer[2]  lookupStabilitySig:vector  ETV
vector 11260  Network.dyn_peer[2]  lookupTimeSig:vector  ETV
vector 11273  Network.dyn_peer[7]  lookupHopsSig:vector  ETV
vector 11274  Network.dyn_peer[7]  lookupStabilitySig:vector  ETV
vector 11275  Network.dyn_peer[7]  lookupTimeSig:vector  ETV
vector 11291  Network.dyn_peer[13]  lookupHopsSig:vector  ETV
vector 11292  Network.dyn_peer[13]  lookupStabilitySig:vector  ETV
vector 11293  Network.dyn_peer[13]  lookupTimeSig:vector  ETV
vector 11297  Network.dyn_peer[15]  lookupHopsSig:vector  ETV
vector 11298  Network.dyn_peer[15]  lookupStabilitySig:vector  ETV
vector 11299  Network.dyn_peer[15]  lookupTimeSig:vector  ETV
vector 11315  Network.dyn_peer[21]  lookupHopsSig:vector  ETV
vector 11316  Network.dyn_peer[21]  lookupStabilitySig:vector  ETV
vector 11317  Network.dyn_peer[21]  lookupTimeSig:vector  ETV
vector 11321  Network.dyn_peer[23]  lookupHopsSig:vector  ETV
vector 11322  Network.dyn_peer[23]  lookupStabilitySig:vector  ETV
vector 11323  Network.dyn_peer[23]  lookupTimeSig:vector  ETV
vector 11333  Network.dyn_peer[27]  lookupHopsSig:vector  ETV
vector 11334  Network.dyn_peer[27]  lookupStabilitySig:vector  ETV
vector 11335  Network.dyn_peer[27]  lookupTimeSig:vector  ETV
vector 11264  Network.dyn_peer[4]  lookupHopsSig:vector  ETV
vector 11265  Network.dyn_peer[4]  lookupStabilitySig:vector  ETV
vector 11266  Network.dyn_peer[4]  lookupTimeSig:vector  ETV
vector 11267  Network.dyn_peer[5]  lookupHopsSig:vector  ETV
vector 11268  Network.dyn_peer[5]  lookupStabilitySig:vector  ETV
vector 11269  Network.dyn_peer[5]  lookupTimeSig:vector  ETV
vector 11327  Network.dyn_peer[25]  lookupHopsSig:vector  ETV
vector 11328  Network.dyn_peer[25]  lookupStabilitySig:vector  ETV
vector 11329  Network.dyn_peer[25]  lookupTimeSig:vector  ETV
vector 11330  Network.dyn_peer[26]  lookupHopsSig:vector  ETV
vector 11331  Network.dyn_peer[26]  lookupStabilitySig:vector  ETV
vector 11332  Network.dyn_peer[26]  lookupTimeSig:vector  ETV
vector 11339  Network.dyn_peer[29]  lookupHopsSig:vector  ETV
vector 11340  Network.dyn_peer[29]  lookupStabilitySig:vector  ETV
vector 11341  Network.dyn_peer[29]  lookupTimeSig:vector  ETV
vector 11300  Network.dyn_peer[16]  lookupHopsSig:vector  ETV
vector 11301  Network.dyn_peer[16]  lookupStabilitySig:vector  ETV
vector 11302  Network.dyn_peer[16]  lookupTimeSig:vector  ETV
vector 11336  Network.dyn_peer[28]  lookupHopsSig:vector  ETV
vector 11337  Network.dyn_peer[28]  lookupStabilitySig:vector  ETV
vector 11338  Network.dyn_peer[28]  lookupTimeSig:vector  ETV
vector 11342  Network.dyn_peer[30]  lookupHopsSig:vector  ETV
vector 11343  Network.dyn_peer[30]  lookupStabilitySig:vector  ETV
vector 11344  Network.dyn_peer[30]  lookupTimeSig:vector  ETV
vector 11309  Network.dyn_peer[19]  lookupHopsSig:vector  ETV
vector 11310  Network.dyn_peer[19]  lookupStabilitySig:vector  ETV
vector 11311  Network.dyn_peer[19]  lookupTimeSig:vector  ETV
vector 11303  Network.dyn_peer[17]  lookupHopsSig:vector  ETV
vector 11304  Network.dyn_peer[17]  lookupStabilitySig:vector  ETV
vector 11305  Network.dyn_peer[17]  lookupTimeSig:vector  ETV
11252	145	20.10000001	1
11252	600	20.90000001	7
11252	1338	21.609890352769	7
11252	1873	22.024355381013	3
11252	3272	23.22518416899	12
11252	3757	23.72518416899	4
11252	4449	24.330319176728	5
11252	4507	24.376499644284	4
11252	4941	24.736687536346	3
11252	5625	25.245457718906	6
11252	6270	25.745457718906	5
11252	6491	25.948318015188	1
11252	6790	26.25245752942	2
11252	7249	26.721259713182	4
11252	7331	26.760828902513	4
11252	7518	26.936603780199	1
11252	7672	27.041574110357	1
11252	8418	27.641574110357	6
11252	8960	28.041993972531	3
11252	9113	28.180375316125	5
11252	9330	28.350492050254	2
11252	9457	28.453099426256	2
11252	10182	29.053099426256	6
11252	10343	29.164279460488	2
11252	10581	29.360555536228	2
11252	11800	30.36778620101	11
11252	12193	30.66778620101	2
11252	12588	30.973908003714	2
11252	13444	31.678401101542	6
11252	14336	32.378501111542	7
11252	15731	33.578501111542	12
11252	16062	33.888108301708	2
11252	16565	34.290151198669	4
11252	16909	34.5912630636	3
11252	17604	35.0912630636	6
11252	18355	35.693294185999	6
11252	18598	35.903177823387	1
11252	19507	36.705049832886	8
11252	20493	37.605049832886	8
11252	20796	37.911621974409	2
11252	20818	37.949604388758	4
11252	20941	38.06440149617	1
11252	21173	38.268262443552	2
11252	22282	39.268262443552	9
11252	22698	39.576673648864	2
11252	23253	40.084273120596	4
11252	23312	40.109657218721	3
11252	23515	40.28457407078	1
11252	23519	40.28681445529	1
11252	23694	40.415396542345	2
11252	23772	40.486996506845	1
11252	23774	40.489180430204	1
11252	24120	40.790561061041	3
11252	25082	41.590561061041	7
11252	25665	42.102793729589	4
11252	26123	42.549520143224	4
11252	26851	43.158363603942	7
11252	27356	43.558363603942	3
11252	27573	43.764355436374	1
11252	27869	44.07359923452	4
11252	28216	44.385927254583	4
11252	28563	44.665787909321	10
11252	28583	44.688700964387	2
11252	28995	45.097705447793	4
11252	30777	46.497705447793	16
11252	31025	46.702966545713	1
11252	31252	46.909859431776	1
11252	32123	47.719557926907	8
11252	32375	47.919557926907	1
11252	32704	48.221568608165	2
11252	33377	48.732411622783	5
11252	33918	49.147730861329	3
11252	34174	49.350658149793	4
11252	34649	49.749579861508	5
11252	34903	49.957115603523	2
11252	35279	50.257115603523	3
11252	35528	50.462753259419	1
11252	35927	50.763004827579	2
11252	36414	51.110276184638	5
11252	36471	51.171300088416	3
11252	37379	51.877977822124	7
11252	37919	52.300677107239	0
11252	38576	52.900677107239	5
11252	38925	53.217686873868	1
11252	39068	53.309424867256	3
11252	39322	53.518662614017	1
11252	39835	53.883544407319	2
11252	39859	53.886934934772	0
11252	40742	54.586934934772	6
11252	40977	54.787177220076	1
11252	41861	55.602745945826	7
11252	41878	55.60772693635	7
11252	42181	55.912424404586	2
11252	42196	55.916321494144	2
11252	42298	56.006138181413	4
11252	42524	56.219948439773	1
11252	43016	56.624968306566	4
11252	43446	57.006095119977	1
11252	44072	57.506195129977	5
11252	44620	58.006195129977	5
11252	45794	59.013414213041	11
11252	46021	59.213414213041	1
11252	46606	59.714226975092	4
11252	47474	60.416514683165	7
11252	47524	60.444679613127	6
11252	48284	61.020001315278	5
11252	48643	61.324489240449	3
11252	49289	61.833824063363	5
11252	50662	62.837465758133	12
11252	51480	63.53851827905	6
11252	52710	64.539200242631	12
11252	53572	65.171177224842	3
11252	54142	65.671177224842	4
11252	54518	65.97256910771	2
11252	55470	66.746612465809	6
11252	56588	67.64814006235	9
11252	56981	67.956707962725	2
11252	57630	68.556807972725	6
11252	57952	68.856807972725	2
11252	58243	69.063794010252	1
11252	58304	69.082852732684	1
11252	59056	69.682952742684	6
11252	59265	69.882952742684	1
11252	60396	70.883319508298	10
11252	60749	71.193978609814	11
11252	61318	71.601756918275	3
11252	61894	71.998037767142	3
11252	62003	72.07865906157	11
11252	62031	72.092692780338	13
11252	62179	72.197109055196	1
11252	62671	72.597109055196	3
11252	63388	73.097162194571	6
11252	63422	73.129904706592	6
11252	63667	73.299382240826	2
11252	64127	73.604172833818	3
11252	65710	75.138632689935	10
11252	66963	76.038632689935	8
11252	67399	76.34727598389	2
11252	69915	78.453821733566	24
11252	70799	79.261659859344	8
11252	71239	79.66722046229	3
11252	72207	80.377079329024	6
11252	72340	80.487020826731	9
11252	72789	80.791623222781	3
11252	72812	80.796926924714	3
11252	73162	81.035503723855	1
11252	73549	81.357996232693	8
11252	73571	81.385313608277	9
11252	73579	81.393594454852	5
11252	73835	81.595735763731	2
11252	74049	81.795735763731	1
11252	74769	82.401155893371	5
11252	75132	82.711608016753	5
11252	75216	82.80199318953	3
11252	75370	82.918881790932	1
11252	75562	83.118981800932	2
11252	76155	83.718981800932	5
11252	76705	84.238972497291	4
11252	77082	84.551265289605	2
11252	77292	84.725986002208	2
11252	77425	84.830531719763	1
11252	78493	85.630531719763	8
11252	79152	86.240157649475	5
11252	79743	86.812694438433	3
11252	79799	86.844183208648	6
11252	79970	86.950051465228	1
11252	81031	87.950051465228	11
11252	81252	88.151141701352	1
11252	81768	88.557095570256	4
11252	81858	88.644569336344	4
11252	82036	88.828312645314	7
11252	82250	88.953041379277	2
11252	82409	89.057898125901	1
11252	83022	89.557898125901	4
11252	83274	89.762629952645	1
11252	84035	90.320767757835	2
11252	84237	90.457276635899	1
11252	84540	90.658640403484	1
11252	84562	90.659329718823	0
11252	85085	91.059329718823	3
11252	85747	91.568847891815	4
11252	86562	92.097998188429	4
11252	87759	93.10597498086	11
11252	88258	93.50597498086	3
11252	89284	94.30607499086	8
11252	90312	95.00607499086	6
11252	91785	96.015835915842	10
11252	91795	96.022497039357	3
11252	92003	96.223277496314	1
11252	92478	96.626332986815	4
11252	93531	97.526332986815	9
11252	94607	98.432567532366	8
11252	94796	98.573189025855	10
11252	95217	98.882261772826	3
11252	96970	100.224020211887	10
11252	97688	100.824020211887	5
11252	98040	101.127858999731	2
11252	98221	101.304232113217	2
11252	98344	101.436854999334	2
11252	98552	101.640361079388	1
11252	98736	101.811308027871	4
11252	98877	101.948171606732	2
11252	98974	102.019527370412	1
11252	100169	102.924068686721	10
11252	100574	103.324068686721	3
11252	101267	104.029342786116	6
11252	101520	104.229546121173	1
11252	102067	104.736000219083	4
11252	102533	105.090335582088	8
11252	102789	105.337620602327	6
11252	102870	105.398362703787	2
11252	102982	105.476593062704	6
11252	103383	105.878266081487	4
11252	103965	106.378266081487	4
11252	104630	106.888215244308	4
11252	105155	107.388315254308	5
11252	106491	108.488315254308	10
11252	107043	108.901172043096	3
11252	107596	109.315233664853	3
11252	107800	109.486115960023	3
11252	108251	109.78964152134	3
11252	109602	110.858954094564	3
11252	109740	110.98964152134	11
11252	109922	111.160600981176	2
11252	110292	111.468567696403	4
11252	110661	111.768567696403	2
11252	110908	111.981892947566	1
11252	110921	112.006094924984	1
11252	111140	112.210280250212	1
11252	111253	112.324201673153	1
11252	111431	112.488415595688	4
11252	112407	113.190043797145	9
11252	112629	113.390043797145	1
11252	113112	113.795919481954	3
11252	113339	114.019292888713	1
11252	113566	114.184639118346	1
11252	113576	114.189539280955	3
11252	113727	114.289639290955	1
11252	114217	114.589639290955	2
11252	115547	115.594782767388	9
11252	116025	115.987018982929	2
11252	116557	116.395113050439	3
11252	116563	116.397850538316	9
11252	116783	116.604198385874	2
11252	117541	117.204198385874	5
11252	117926	117.511368492237	2
11252	118812	118.171226045267	4
11252	118892	118.216011235346	7
11252	119476	118.634853306239	3
11252	119550	118.676461050267	4
11252	120174	119.26298140538	6
11252	120794	119.737878314886	11
11252	120822	119.772251221007	6
11252	121252	120.07510518631	3
11252	122143	120.67510518631	6
11252	122514	120.977110956893	2
11252	124355	122.69438262028	17
11252	124887	123.098827822439	3
11252	125166	123.342611046128	4
11252	125245	123.404436101024	2
11252	125550	123.61315525057	2
11252	125769	123.746256156418	3
11252	125848	123.785553849495	2
11252	126229	124.046337259768	2
11252	126628	124.313605337533	7
11252	126929	124.4865329843	6
11252	127218	124.721627657577	3
11252	127223	124.724012402245	3
11252	127386	124.824112412245	1
11252	127908	125.224112412245	3
11252	128134	125.407795274578	3
11252	128392	125.629385505965	4
11252	128806	126.014994572709	5
11252	128941	126.130760728377	5
11252	128961	126.135221136069	4
11252	129556	126.643266670059	5
11252	130465	127.443266670059	9
11252	131097	127.950203974105	4
11252	131257	128.058775161441	0
11252	131382	128.155759884829	0
11252	131561	128.280423497988	1
11252	132010	128.664527709069	4
11252	132282	128.888490905656	6
11252	132301	128.927797395349	6
11252	133044	129.531644162802	7
11252	133273	129.731644162802	1
11252	133768	130.233315081322	4
11252	134392	130.833415091322	6
11252	135414	131.733415091322	9
11252	136117	132.343154869259	5
11252	136267	132.51968231167	4
11252	137221	133.42022832222	6
11252	137890	134.02022832222	7
11253	145	20.10000001	0.875
11253	600	20.90000001	0.125
11253	1338	21.609890352769	0.125
11253	1873	22.024355381013	0.625
11253	3272	23.22518416899	-0.5
11253	3757	23.72518416899	0.5
11253	4449	24.330319176728	0.375
11253	4507	24.376499644284	0.5
11253	4941	24.736687536346	0.625
11253	5625	25.245457718906	0.25
11253	6270	25.745457718906	0.375
11253	6491	25.948318015188	0.875
11253	6790	26.25245752942	0.75
11253	7249	26.721259713182	0.5
11253	7331	26.760828902513	0.5
11253	7518	26.936603780199	0.875
11253	7672	27.041574110357	0.875
11253	8418	27.641574110357	0.25
11253	8960	28.041993972531	0.625
11253	9113	28.180375316125	0.375
11253	9330	28.350492050254	0.75
11253	9457	28.453099426256	0.75
11253	10182	29.053099426256	0.25
11253	10343	29.164279460488	0.75
11253	10581	29.360555536228	0.75
11253	11800	30.36778620101	-0.375
11253	12193	30.66778620101	0.75
11253	12588	30.973908003714	0.75
11253	13444	31.678401101542	0.25
11253	14336	32.378501111542	0.125
11253	15731	33.578501111542	-0.5
11253	16062	33.888108301708	0.75
11253	16565	34.290151198669	0.5
11253	16909	34.5912630636	0.625
11253	17604	35.0912630636	0.25
11253	18355	35.693294185999	0.25
11253	18598	35.903177823387	0.875
11253	19507	36.705049832886	0
11253	20493	37.605049832886	0
11253	20796	37.911621974409	0.75
11253	20818	37.949604388758	0.5
11253	20941	38.06440149617	0.875
11253	21173	38.268262443552	0.75
11253	22282	39.268262443552	-0.125
11253	22698	39.576673648864	0.75
11253	23253	40.084273120596	0.5
11253	23312	40.109657218721	0.625
11253	23515	40.28457407078	0.875
11253	23519	40.28681445529	0.875
11253	23694	40.415396542345	0.75
11253	23772	40.486996506845	0.875
11253	23774	40.489180430204	0.875
11253	24120	40.790561061041	0.625
11253	25082	41.590561061041	0.125
11253	25665	42.102793729589	0.5
11253	26123	42.549520143224	0.5
11253	26851	43.158363603942	0.125
11253	27356	43.558363603942	0.625
11253	27573	43.764355436374	0.875
11253	27869	44.07359923452	0.5
11253	28216	44.385927254583	0.5
11253	28563	44.665787909321	-0.25
11253	28583	44.688700964387	0.75
11253	28995	45.097705447793	0.5
11253	30777	46.497705447793	-1
11253	31025	46.702966545713	0.875
11253	31252	46.909859431776	0.875
11253	32123	47.719557926907	0
11253	32375	47.919557926907	0.875
11253	32704	48.221568608165	0.75
11253	33377	48.732411622783	0.375
11253	33918	49.147730861329	0.625
11253	34174	49.350658149793	0.5
11253	34649	49.749579861508	0.375
11253	34903	49.957115603523	0.75
11253	35279	50.257115603523	0.625
11253	35528	50.462753259419	0.875
11253	35927	50.763004827579	0.75
11253	36414	51.110276184638	0.375
11253	36471	51.171300088416	0.625
11253	37379	51.877977822124	0.125
11253	37919	52.300677107239	1
11253	38576	52.900677107239	0.375
11253	38925	53.217686873868	0.88888888806105
11253	39068	53.309424867256	0.625
11253	39322	53.518662614017	0.875
11253	39835	53.883544407319	0.75
11253	39859	53.886934934772	1
11253	40742	54.586934934772	0.25
11253	40977	54.787177220076	0.875
11253	41861	55.602745945826	0.125
11253	41878	55.60772693635	0.125
11253	42181	55.912424404586	0.75
11253	42196	55.916321494144	0.75
11253	42298	56.006138181413	0.5
11253	42524	56.219948439773	0.875
11253	43016	56.624968306566	0.5
11253	43446	57.006095119977	0.875
11253	44072	57.506195129977	0.375
11253	44620	58.006195129977	0.375
11253	45794	59.013414213041	-0.375
11253	46021	59.213414213041	0.875
11253	46606	59.714226975092	0.5
11253	47474	60.416514683165	0.125
11253	47524	60.444679613127	0.25
11253	48284	61.020001315278	0.375
11253	48643	61.324489240449	0.625
11253	49289	61.833824063363	0.375
11253	50662	62.837465758133	-0.5
11253	51480	63.53851827905	0.25
11253	52710	64.539200242631	-0.5
11253	53572	65.171177224842	0.625
11253	54142	65.671177224842	0.5
11253	54518	65.97256910771	0.75
11253	55470	66.746612465809	0.25
11253	56588	67.64814006235	-0.125
11253	56981	67.956707962725	0.75
11253	57630	68.556807972725	0.25
11253	57952	68.856807972725	0.75
11253	58243	69.063794010252	0.875
11253	58304	69.082852732684	0.875
11253	59056	69.682952742684	0.25
11253	59265	69.882952742684	0.875
11253	60396	70.883319508298	-0.25
11253	60749	71.193978609814	-0.375
11253	61318	71.601756918275	0.625
11253	61894	71.998037767142	0.625
11253	62003	72.07865906157	-0.375
11253	62031	72.092692780338	-0.625
11253	62179	72.197109055196	0.875
11253	62671	72.597109055196	0.625
11253	63388	73.097162194571	0.25
11253	63422	73.129904706592	0.25
11253	63667	73.299382240826	0.75
11253	64127	73.604172833818	0.625
11253	65710	75.138632689935	-0.25
11253	66963	76.038632689935	0
11253	67399	76.34727598389	0.75
11253	69915	78.453821733566	-2
11253	70799	79.261659859344	0
11253	71239	79.66722046229	0.625
11253	72207	80.377079329024	0.25
11253	72340	80.487020826731	-0.125
11253	72789	80.791623222781	0.625
11253	72812	80.796926924714	0.625
11253	73162	81.035503723855	0.875
11253	73549	81.357996232693	0
11253	73571	81.385313608277	-0.125
11253	73579	81.393594454852	0.375
11253	73835	81.595735763731	0.75
11253	74049	81.795735763731	0.875
11253	74769	82.401155893371	0.375
11253	75132	82.711608016753	0.375
11253	75216	82.80199318953	0.625
11253	75370	82.918881790932	0.875
11253	75562	83.118981800932	0.75
11253	76155	83.718981800932	0.375
11253	76705	84.238972497291	0.5
11253	77082	84.551265289605	0.75
11253	77292	84.725986002208	0.75
11253	77425	84.830531719763	0.875
11253	78493	85.630531719763	0
11253	79152	86.240157649475	0.375
11253	79743	86.812694438433	0.625
11253	79799	86.844183208648	0.25
11253	79970	86.950051465228	0.875
11253	81031	87.950051465228	-0.375
11253	81252	88.151141701352	0.875
11253	81768	88.557095570256	0.5
11253	81858	88.644569336344	0.5
11253	82036	88.828312645314	0.125
11253	82250	88.953041379277	0.75
11253	82409	89.057898125901	0.875
11253	83022	89.557898125901	0.5
11253	83274	89.762629952645	0.875
11253	84035	90.320767757835	0.75
11253	84237	90.457276635899	0.875
11253	84540	90.658640403484	0.875
11253	84562	90.659329718823	1
11253	85085	91.059329718823	0.625
11253	85747	91.568847891815	0.5
11253	86562	92.097998188429	0.5
11253	87759	93.10597498086	-0.375
11253	88258	93.50597498086	0.625
11253	89284	94.30607499086	0
11253	90312	95.00607499086	0.25
11253	91785	96.015835915842	-0.25
11253	91795	96.022497039357	0.625
11253	92003	96.223277496314	0.875
11253	92478	96.626332986815	0.5
11253	93531	97.526332986815	-0.125
11253	94607	98.432567532366	0
11253	94796	98.573189025855	-0.25
11253	95217	98.882261772826	0.625
11253	96970	100.224020211887	-0.25
11253	97688	100.824020211887	0.375
11253	98040	101.127858999731	0.75
11253	98221	101.304232113217	0.75
11253	98344	101.436854999334	0.75
11253	98552	101.640361079388	0.875
11253	98736	101.811308027871	0.5
11253	98877	101.948171606732	0.75
11253	98974	102.019527370412	0.875
11253	100169	102.924068686721	-0.25
11253	100574	103.324068686721	0.625
11253	101267	104.029342786116	0.25
11253	101520	104.229546121173	0.875
11253	102067	104.736000219083	0.5
11253	102533	105.090335582088	0
11253	102789	105.337620602327	0.25
11253	102870	105.398362703787	0.75
11253	102982	105.476593062704	0.25
11253	103383	105.878266081487	0.5
11253	103965	106.378266081487	0.5
11253	104630	106.888215244308	0.5
11253	105155	107.388315254308	0.375
11253	106491	108.488315254308	-0.25
11253	107043	108.901172043096	0.625
11253	107596	109.315233664853	0.625
11253	107800	109.486115960023	0.625
11253	108251	109.78964152134	0.625
11253	109602	110.858954094564	0.625
11253	109740	110.98964152134	-0.375
11253	109922	111.160600981176	0.75
11253	110292	111.468567696403	0.5
11253	110661	111.768567696403	0.75
11253	110908	111.981892947566	0.875
11253	110921	112.006094924984	0.875
11253	111140	112.210280250212	0.875
11253	111253	112.324201673153	0.875
11253	111431	112.488415595688	0.5
11253	112407	113.190043797145	-0.125
11253	112629	113.390043797145	0.875
11253	113112	113.795919481954	0.625
11253	113339	114.019292888713	0.875
11253	113566	114.184639118346	0.875
11253	113576	114.189539280955	0.625
11253	113727	114.289639290955	0.875
11253	114217	114.589639290955	0.75
11253	115547	115.594782767388	-0.125
11253	116025	115.987018982929	0.75
11253	116557	116.395113050439	0.625
11253	116563	116.397850538316	-0.125
11253	116783	116.604198385874	0.75
11253	117541	117.204198385874	0.375
11253	117926	117.511368492237	0.75
11253	118812	118.171226045267	0.5
11253	118892	118.216011235346	0.125
11253	119476	118.634853306239	0.625
11253	119550	118.676461050267	0.5
11253	120174	119.26298140538	0.25
11253	120794	119.737878314886	-0.375
11253	120822	119.772251221007	0.25
11253	121252	120.07510518631	0.625
11253	122143	120.67510518631	0.25
11253	122514	120.977110956893	0.75
11253	124355	122.69438262028	-1.125
11253	124887	123.098827822439	0.625
11253	125166	123.342611046128	0.5
11253	125245	123.404436101024	0.75
11253	125550	123.61315525057	0.75
11253	125769	123.746256156418	0.625
11253	125848	123.785553849495	0.75
11253	126229	124.046337259768	0.75
11253	126628	124.313605337533	0.125
11253	126929	124.4865329843	0.25
11253	127218	124.721627657577	0.625
11253	127223	124.724012402245	0.625
11253	127386	124.824112412245	0.875
11253	127908	125.224112412245	0.625
11253	128134	125.407795274578	0.625
11253	128392	125.629385505965	0.5
11253	128806	126.014994572709	0.375
11253	128941	126.130760728377	0.375
11253	128961	126.135221136069	0.5
11253	129556	126.643266670059	0.375
11253	130465	127.443266670059	-0.125
11253	131097	127.950203974105	0.5
11253	131257	128.058775161441	1
11253	131382	128.155759884829	1
11253	131561	128.280423497988	0.875
11253	132010	128.664527709069	0.5
11253	132282	128.888490905656	0.25
11253	132301	128.927797395349	0.25
11253	133044	129.531644162802	0.125
11253	133273	129.731644162802	0.875
11253	133768	130.233315081322	0.5
11253	134392	130.833415091322	0.25
11253	135414	131.733415091322	-0.125
11253	136117	132.343154869259	0.375
11253	136267	132.51968231167	0.5
11253	137221	133.42022832222	0.25
11253	137890	134.02022832222	0.125
11254	145	20.10000001	0.1
11254	600	20.90000001	0.8
11254	1338	21.609890352769	0.7
11254	1873	22.024355381013	0.4
11254	3272	23.22518416899	1.2
11254	3757	23.72518416899	0.5
11254	4449	24.330319176728	0.6
11254	4507	24.376499644284	0.5
11254	4941	24.736687536346	0.4
11254	5625	25.245457718906	0.5
11254	6270	25.745457718906	0.5
11254	6491	25.948318015188	0.2
11254	6790	26.25245752942	0.3
11254	7249	26.721259713182	0.5
11254	7331	26.760828902513	0.5
11254	7518	26.936603780199	0.2
11254	7672	27.041574110357	0.1
11254	8418	27.641574110357	0.6
11254	8960	28.041993972531	0.4
11254	9113	28.180375316125	0.5
11254	9330	28.350492050254	0.3
11254	9457	28.453099426256	0.1
11254	10182	29.053099426256	0.6
11254	10343	29.164279460488	0.2
11254	10581	29.360555536228	0.3
11254	11800	30.36778620101	1
11254	12193	30.66778620101	0.3
11254	12588	30.973908003714	0.3
11254	13444	31.678401101542	0.7
11254	14336	32.378501111542	0.7
11254	15731	33.578501111542	1.2
11254	16062	33.888108301708	0.3
11254	16565	34.290151198669	0.4
11254	16909	34.5912630636	0.3
11254	17604	35.0912630636	0.5
11254	18355	35.693294185999	0.6
11254	18598	35.903177823387	0.2
11254	19507	36.705049832886	0.8
11254	20493	37.605049832886	0.9
11254	20796	37.911621974409	0.3
11254	20818	37.949604388758	0.5
11254	20941	38.06440149617	0.2
11254	21173	38.268262443552	0.2
11254	22282	39.268262443552	1
11254	22698	39.576673648864	0.3
11254	23253	40.084273120596	0.5
11254	23312	40.109657218721	0.4
11254	23515	40.28457407078	0.2
11254	23519	40.28681445529	0.2
11254	23694	40.415396542345	0.3
11254	23772	40.486996506845	0.2
11254	23774	40.489180430204	0.2
11254	24120	40.790561061041	0.3
11254	25082	41.590561061041	0.8
11254	25665	42.102793729589	0.5
11254	26123	42.549520143224	0.5
11254	26851	43.158363603942	0.6
11254	27356	43.558363603942	0.4
11254	27573	43.764355436374	0.2
11254	27869	44.07359923452	0.4
11254	28216	44.385927254583	0.3
11254	28563	44.665787909321	0.9
11254	28583	44.688700964387	0.3
11254	28995	45.097705447793	0.4
11254	30777	46.497705447793	1.4
11254	31025	46.702966545713	0.2
11254	31252	46.909859431776	0.2
11254	32123	47.719557926907	0.8
11254	32375	47.919557926907	0.2
11254	32704	48.221568608165	0.3
11254	33377	48.732411622783	0.5
11254	33918	49.147730861329	0.4
11254	34174	49.350658149793	0.5
11254	34649	49.749579861508	0.6
11254	34903	49.957115603523	0.2
11254	35279	50.257115603523	0.3
11254	35528	50.462753259419	0.2
11254	35927	50.763004827579	0.3
11254	36414	51.110276184638	0.6
11254	36471	51.171300088416	0.4
11254	37379	51.877977822124	0.7
11254	37919	52.300677107239	0
11254	38576	52.900677107239	0.6
11254	38925	53.217686873868	0.2
11254	39068	53.309424867256	0.4
11254	39322	53.518662614017	0.2
11254	39835	53.883544407319	0.3
11254	39859	53.886934934772	0
11254	40742	54.586934934772	0.7
11254	40977	54.787177220076	0.2
11254	41861	55.602745945826	0.8
11254	41878	55.60772693635	0.8
11254	42181	55.912424404586	0.3
11254	42196	55.916321494144	0.3
11254	42298	56.006138181413	0.4
11254	42524	56.219948439773	0.2
11254	43016	56.624968306566	0.4
11254	43446	57.006095119977	0.2
11254	44072	57.506195129977	0.5
11254	44620	58.006195129977	0.5
11254	45794	59.013414213041	1
11254	46021	59.213414213041	0.2
11254	46606	59.714226975092	0.5
11254	47474	60.416514683165	0.7
11254	47524	60.444679613127	0.6
11254	48284	61.020001315278	0.6
11254	48643	61.324489240449	0.3
11254	49289	61.833824063363	0.5
11254	50662	62.837465758133	1
11254	51480	63.53851827905	0.7
11254	52710	64.539200242631	1
11254	53572	65.171177224842	0.3
11254	54142	65.671177224842	0.5
11254	54518	65.97256910771	0.3
11254	55470	66.746612465809	0.7
11254	56588	67.64814006235	0.9
11254	56981	67.956707962725	0.3
11254	57630	68.556807972725	0.6
11254	57952	68.856807972725	0.3
11254	58243	69.063794010252	0.2
11254	58304	69.082852732684	0.2
11254	59056	69.682952742684	0.6
11254	59265	69.882952742684	0.2
11254	60396	70.883319508298	1
11254	60749	71.193978609814	1.2
11254	61318	71.601756918275	0.4
11254	61894	71.998037767142	0.3
11254	62003	72.07865906157	1.1
11254	62031	72.092692780338	1.2
11254	62179	72.197109055196	0.1
11254	62671	72.597109055196	0.4
11254	63388	73.097162194571	0.5
11254	63422	73.129904706592	0.5
11254	63667	73.299382240826	0.2
11254	64127	73.604172833818	0.3
11254	65710	75.138632689935	1
11254	66963	76.038632689935	0.9
11254	67399	76.34727598389	0.3
11254	69915	78.453821733566	2.1
11254	70799	79.261659859344	0.8
11254	71239	79.66722046229	0.4
11254	72207	80.377079329024	0.7
11254	72340	80.487020826731	1
11254	72789	80.791623222781	0.3
11254	72812	80.796926924714	0.3
11254	73162	81.035503723855	0.2
11254	73549	81.357996232693	0.8