version 2
run Stability-76-20130528-00:55:10-21385
attr configname Stability
attr datetime 20130528-00:55:10
attr experiment Stability
attr inifile omnetpp.ini
attr iterationvars $0=1e-1
attr iterationvars2 "$0=1e-1, $repetition=6"
attr measurement $0=1e-1
attr network Network
attr processid 21385
attr repetition 6
attr replication #6
attr resultdir results
attr runnumber 76
attr seedset 76

vector 7468  Network.churner  inGoingSizeSig:vector  ETV
vector 7381  Network.dyn_peer[3]  lookupHopsSig:vector  ETV
vector 7382  Network.dyn_peer[3]  lookupStabilitySig:vector  ETV
vector 7383  Network.dyn_peer[3]  lookupTimeSig:vector  ETV
vector 7396  Network.dyn_peer[8]  lookupHopsSig:vector  ETV
vector 7397  Network.dyn_peer[8]  lookupStabilitySig:vector  ETV
vector 7398  Network.dyn_peer[8]  lookupTimeSig:vector  ETV
vector 7378  Network.dyn_peer[2]  lookupHopsSig:vector  ETV
vector 7379  Network.dyn_peer[2]  lookupStabilitySig:vector  ETV
vector 7380  Network.dyn_peer[2]  lookupTimeSig:vector  ETV
vector 7387  Network.dyn_peer[5]  lookupHopsSig:vector  ETV
vector 7388  Network.dyn_peer[5]  lookupStabilitySig:vector  ETV
vector 7389  Network.dyn_peer[5]  lookupTimeSig:vector  ETV
vector 7399  Network.dyn_peer[9]  lookupHopsSig:vector  ETV
vector 7400  Network.dyn_peer[9]  lookupStabilitySig:vector  ETV
vector 7401  Network.dyn_peer[9]  lookupTimeSig:vector  ETV
vector 7411  Network.dyn_peer[13]  lookupHopsSig:vector  ETV
vector 7412  Network.dyn_peer[13]  lookupStabilitySig:vector  ETV
vector 7413  Network.dyn_peer[13]  lookupTimeSig:vector  ETV
vector 7414  Network.dyn_peer[14]  lookupHopsSig:vector  ETV
vector 7415  Network.dyn_peer[14]  lookupStabilitySig:vector  ETV
vector 7416  Network.dyn_peer[14]  lookupTimeSig:vector  ETV
vector 7420  Network.dyn_peer[16]  lookupHopsSig:vector  ETV
vector 7421  Network.dyn_peer[16]  lookupStabilitySig:vector  ETV
vector 7422  Network.dyn_peer[16]  lookupTimeSig:vector  ETV
vector 7423  Network.dyn_peer[17]  lookupHopsSig:vector  ETV
vector 7424  Network.dyn_peer[17]  lookupStabilitySig:vector  ETV
vector 7425  Network.dyn_peer[17]  lookupTimeSig:vector  ETV
vector 7426  Network.dyn_peer[18]  lookupHopsSig:vector  ETV
vector 7427  Network.dyn_peer[18]  lookupStabilitySig:vector  ETV
vector 7428  Network.dyn_peer[18]  lookupTimeSig:vector  ETV
vector 7429  Network.dyn_peer[19]  lookupHopsSig:vector  ETV
vector 7430  Network.dyn_peer[19]  lookupStabilitySig:vector  ETV
vector 7431  Network.dyn_peer[19]  lookupTimeSig:vector  ETV
vector 7372  Network.dyn_peer[0]  lookupHopsSig:vector  ETV
vector 7373  Network.dyn_peer[0]  lookupStabilitySig:vector  ETV
vector 7374  Network.dyn_peer[0]  lookupTimeSig:vector  ETV
vector 7384  Network.dyn_peer[4]  lookupHopsSig:vector  ETV
vector 7385  Network.dyn_peer[4]  lookupStabilitySig:vector  ETV
vector 7386  Network.dyn_peer[4]  lookupTimeSig:vector  ETV
vector 7390  Network.dyn_peer[6]  lookupHopsSig:vector  ETV
vector 7391  Network.dyn_peer[6]  lookupStabilitySig:vector  ETV
vector 7392  Network.dyn_peer[6]  lookupTimeSig:vector  ETV
vector 7405  Network.dyn_peer[11]  lookupHopsSig:vector  ETV
vector 7406  Network.dyn_peer[11]  lookupStabilitySig:vector  ETV
vector 7407  Network.dyn_peer[11]  lookupTimeSig:vector  ETV
vector 7417  Network.dyn_peer[15]  lookupHopsSig:vector  ETV
vector 7418  Network.dyn_peer[15]  lookupStabilitySig:vector  ETV
vector 7419  Network.dyn_peer[15]  lookupTimeSig:vector  ETV
vector 7441  Network.dyn_peer[23]  lookupHopsSig:vector  ETV
vector 7442  Network.dyn_peer[23]  lookupStabilitySig:vector  ETV
vector 7443  Network.dyn_peer[23]  lookupTimeSig:vector  ETV
vector 7447  Network.dyn_peer[25]  lookupHopsSig:vector  ETV
vector 7448  Network.dyn_peer[25]  lookupStabilitySig:vector  ETV
vector 7449  Network.dyn_peer[25]  lookupTimeSig:vector  ETV
vector 7450  Network.dyn_peer[26]  lookupHopsSig:vector  ETV
vector 7451  Network.dyn_peer[26]  lookupStabilitySig:vector  ETV
vector 7452  Network.dyn_peer[26]  lookupTimeSig:vector  ETV
vector 7465  Network.dyn_peer[31]  lookupHopsSig:vector  ETV
vector 7466  Network.dyn_peer[31]  lookupStabilitySig:vector  ETV
vector 7467  Network.dyn_peer[31]  lookupTimeSig:vector  ETV
vector 7375  Network.dyn_peer[1]  lookupHopsSig:vector  ETV
vector 7376  Network.dyn_peer[1]  lookupStabilitySig:vector  ETV
vector 7377  Network.dyn_peer[1]  lookupTimeSig:vector  ETV
vector 7402  Network.dyn_peer[10]  lookupHopsSig:vector  ETV
vector 7403  Network.dyn_peer[10]  lookupStabilitySig:vector  ETV
vector 7404  Network.dyn_peer[10]  lookupTimeSig:vector  ETV
vector 7432  Network.dyn_peer[20]  lookupHopsSig:vector  ETV
vector 7433  Network.dyn_peer[20]  lookupStabilitySig:vector  ETV
vector 7434  Network.dyn_peer[20]  lookupTimeSig:vector  ETV
vector 7453  Network.dyn_peer[27]  lookupHopsSig:vector  ETV
vector 7454  Network.dyn_peer[27]  lookupStabilitySig:vector  ETV
vector 7455  Network.dyn_peer[27]  lookupTimeSig:vector  ETV
vector 7462  Network.dyn_peer[30]  lookupHopsSig:vector  ETV
vector 7463  Network.dyn_peer[30]  lookupStabilitySig:vector  ETV
vector 7464  Network.dyn_peer[30]  lookupTimeSig:vector  ETV
vector 7393  Network.dyn_peer[7]  lookupHopsSig:vector  ETV
vector 7394  Network.dyn_peer[7]  lookupStabilitySig:vector  ETV
vector 7395  Network.dyn_peer[7]  lookupTimeSig:vector  ETV
vector 7438  Network.dyn_peer[22]  lookupHopsSig:vector  ETV
vector 7439  Network.dyn_peer[22]  lookupStabilitySig:vector  ETV
vector 7440  Network.dyn_peer[22]  lookupTimeSig:vector  ETV
vector 7444  Network.dyn_peer[24]  lookupHopsSig:vector  ETV
vector 7445  Network.dyn_peer[24]  lookupStabilitySig:vector  ETV
vector 7446  Network.dyn_peer[24]  lookupTimeSig:vector  ETV
vector 7456  Network.dyn_peer[28]  lookupHopsSig:vector  ETV
vector 7457  Network.dyn_peer[28]  lookupStabilitySig:vector  ETV
vector 7458  Network.dyn_peer[28]  lookupTimeSig:vector  ETV
vector 7459  Network.dyn_peer[29]  lookupHopsSig:vector  ETV
vector 7460  Network.dyn_peer[29]  lookupStabilitySig:vector  ETV
vector 7461  Network.dyn_peer[29]  lookupTimeSig:vector  ETV
vector 7408  Network.dyn_peer[12]  lookupHopsSig:vector  ETV
vector 7409  Network.dyn_peer[12]  lookupStabilitySig:vector  ETV
vector 7410  Network.dyn_peer[12]  lookupTimeSig:vector  ETV
vector 7435  Network.dyn_peer[21]  lookupHopsSig:vector  ETV
vector 7436  Network.dyn_peer[21]  lookupStabilitySig:vector  ETV
vector 7437  Network.dyn_peer[21]  lookupTimeSig:vector  ETV
7372	202	20.2001	2
7372	579	20.8001	5
7372	1211	21.401104764696	5
7372	1459	21.608832518143	1
7372	2547	22.510098007145	9
7372	3004	22.810098007145	2
7372	3688	23.310649206524	5
7372	4005	23.614277500706	6
7372	4350	23.917161442206	2
7372	4865	24.425684630567	5
7372	5811	25.225684630567	8
7372	5834	25.23095092045	0
7372	6076	25.43095092045	1
7372	6560	25.840186590694	3
7372	6991	26.140386590694	3
7372	8337	27.138886737732	7
7372	9100	27.740117956524	3
7372	9661	28.246610390428	4
7372	9988	28.546645788002	2
7372	10550	28.946845788002	4
7372	11265	29.446845788002	4
7372	11595	29.650528197643	5
7372	11977	29.949616959515	5
7372	12093	30.050951733957	3
7372	12771	30.572293968329	4
7372	12938	30.754005725053	8
7372	12940	30.755544768495	7
7372	13466	31.157396503735	4
7372	13691	31.357396503735	1
7372	14019	31.6611211163	2
7372	14850	32.373152543844	7
7372	15081	32.577015115602	1
7372	15240	32.685431264484	1
7372	15544	32.985431264484	2
7372	15974	33.391758740328	3
7372	16343	33.700345563178	2
7372	17188	34.37470645703	3
7372	18011	34.940643940092	2
7372	18941	35.740643940092	7
7372	19225	35.946165782489	2
7372	20560	37.146165782489	11
7372	21198	37.654493319453	4
7372	22319	38.458610891993	8
7372	22532	38.658610891993	1
7372	24040	39.865706566632	11
7372	24405	40.168302059869	2
7372	24498	40.223973196027	2
7372	24523	40.230845840067	0
7372	24966	40.530845840067	2
7372	25162	40.733252979096	1
7372	26053	41.434850662348	1
7372	26535	41.844485186049	3
7372	29037	43.744685186049	23
7372	29509	44.144685186049	3
7372	29787	44.353938240726	1
7372	30070	44.568336913956	1
7372	30531	44.87237356581	3
7372	32318	46.47237356581	16
7372	32638	46.679278996777	2
7372	33170	47.079278996777	3
7372	33816	47.59746286074	5
7372	34109	47.804392476368	2
7372	34731	48.307141484561	5
7372	35654	49.107141484561	8
7372	36704	50.012939608652	8
7372	37243	50.487093494922	8
7372	37373	50.51777759119	5
7372	37552	50.710548559992	2
7372	37955	51.027382359097	4
7372	38123	51.197271573096	6
7372	38314	51.313698549667	5
7372	38324	51.330021905677	3
7372	39258	52.131621628572	8
7372	40236	53.031621628572	9
7372	41032	53.639603670186	7
7372	41406	53.928257949311	2
7372	41560	54.042793610028	3
7372	41664	54.12311935795	2
7372	41985	54.328343971504	2
7372	43357	55.431482174619	11
7372	44306	56.133104883645	7
7372	44688	56.4375837669	2
7372	44695	56.441255449692	2
7372	44988	56.649610177417	2
7372	45195	56.849610177417	1
7372	45477	57.055764769221	1
7372	46083	57.537508980916	2
7372	46534	57.937508980916	3
7372	46922	58.244072233794	2
7372	46979	58.298109033302	2
7372	46997	58.301462376067	0
7372	47263	58.501462376067	1
7372	48167	59.101926758135	6
7372	48836	59.601926758135	4
7372	50027	60.607722560169	5
7372	51451	61.895122291931	2
7372	51817	62.201736834441	2
7372	52114	62.410857701576	6
7372	52236	62.502458745675	3
7372	52269	62.508987137494	2
7372	52900	62.909187137494	4
7372	53332	63.209187137494	2
7372	53923	63.714678878705	4
7372	54111	63.883642927158	2
7372	54327	64.086446771422	2
7372	55106	64.786446771422	6
7372	55325	64.996066811746	1
7372	55489	65.115627978263	1
7372	55825	65.402973545588	3
7372	55840	65.404944934589	0
7372	56233	65.640284858677	1
7372	56877	66.137236635032	0
7372	57385	66.54564353897	2
7372	57967	67.04564353897	4
7372	58678	67.653217866769	6
7372	59913	68.653217866769	10
7372	60547	69.248293491805	3
7372	61382	69.948293491805	6
7372	61514	70.056978150045	3
7372	62110	70.552200865475	6
7372	62376	70.762037955075	7
7372	62713	71.05326068032	5
7372	62900	71.178157711088	3
7372	62915	71.183204580386	4
7372	63622	71.785016500964	6
7372	64823	72.885016500964	11
7372	65339	73.286100674148	3
7372	65429	73.375187310303	3
7372	66257	73.987019450994	6
7372	68097	75.689383768584	19
7372	68491	75.989383768584	2
7372	68773	76.201996074425	1
7372	69439	76.709544023401	4
7372	69828	77.011078777823	3
7372	69847	77.017615527573	7
7372	70047	77.187165366565	3
7372	70576	77.589201089979	4
7372	70810	77.789201089979	1
7372	71231	78.193766835878	3
7372	71460	78.393966835878	2
7372	71821	78.693966835878	2
7372	72204	78.997151294186	2
7372	72449	79.202884221422	3
7372	72751	79.408637350955	2
7372	72931	79.51224898265	2
7372	73429	79.918897141867	5
7372	74035	80.518897141867	5
7372	74374	80.827347155801	2
7372	75063	81.349008307025	6
7372	75345	81.629840494786	7
7372	75521	81.741563266748	6
7372	75654	81.862838275903	6
7372	76343	82.472409578233	6
7372	76567	82.674254579198	1
7372	76950	83.080167631661	4
7372	77154	83.283857403099	1
7372	77984	83.89055195958	6
7372	78763	84.59055195958	6
7372	79563	85.299214587905	6
7372	79771	85.503719921574	1
7372	79918	85.609444385004	1
7372	80356	86.009444385004	3
7372	80534	86.217079185762	1
7372	81715	87.24951370173	3
7372	81975	87.42528838671	13
7372	82238	87.628242344758	1
7372	82642	87.928442344758	3
7372	83045	88.228442344758	2
7372	83236	88.429208649829	1
7372	83678	88.835409159868	3
7372	84014	89.135644825722	2
7372	84044	89.170323101428	4
7372	84241	89.379518484358	1
7372	84483	89.583635864188	2
7372	84728	89.783635864188	2
7372	85423	90.393138142465	5
7372	85825	90.693138142465	3
7372	86272	91.094171429157	3
7372	87000	91.694780979066	5
7372	87004	91.696143618607	5
7372	87442	92.101096296392	3
7372	87444	92.101700826963	3
7372	88130	92.702911517345	5
7372	88179	92.709130296847	5
7372	88751	93.112621757939	6
7372	89452	93.712621757939	5
7372	89707	93.914768863498	1
7372	89936	94.124432660078	1
7372	89951	94.124632660078	0
7372	90619	94.732260261224	5
7372	91419	95.437857969246	7
7372	92590	96.363726972866	7
7372	93032	96.763726972866	3
7372	93864	97.468443325185	6
7372	94244	97.772013250701	2
7372	94251	97.776437739517	2
7372	94495	97.978157933431	1
7372	94647	98.080929677476	1
7372	95385	98.680929677476	5
7372	95635	98.914949520462	7
7372	95905	99.119691775223	2
7372	96326	99.519691775223	3
7372	96496	99.665322912737	3
7372	96682	99.804878452585	2
7372	96841	99.927879593	4
7372	98844	101.628565925562	18
7372	99424	102.128565925562	4
7372	99914	102.638527990976	4
7372	100370	103.046984385806	3
7372	101125	103.648337759468	5
7372	101498	103.936909118194	1
7372	101551	103.962480092199	7
7372	101770	104.15013395276	1
7372	102107	104.459674600049	3
7372	103063	105.159674600049	6
7372	103531	105.566832274029	3
7372	104526	106.367032274029	8
7372	105029	106.767032274029	3
7372	105439	107.080204425954	2
7372	107210	108.486088575591	15
7372	107776	108.886088575591	4
7372	108144	109.186841055036	2
7372	108607	109.573389429481	0
7372	109111	109.9835916802	3
7372	109378	110.1837916802	2
7372	109848	110.542057534481	1
7372	110672	111.242057534481	6
7372	110785	111.349955623319	1
7372	111910	112.056543048847	7
7372	112428	112.581315980504	3
7372	112510	112.656543048847	6
7372	112641	112.783175407139	1
7372	113168	113.284828199083	5
7372	113526	113.584828199083	2
7372	115001	114.885483082628	13
7372	115193	115.094968373784	1
7372	115696	115.499311883646	3
7372	115834	115.609799271901	3
7372	115960	115.702051944246	1
7372	117014	116.404159995892	8
7372	117268	116.604159995892	1
7372	117700	117.010216376303	3
7372	117889	117.215587772281	1
7372	118249	117.51720016747	3
7372	119090	118.21720016747	6
7372	119694	118.61419322652	3
7372	120232	119.02695609128	8
7372	120480	119.221919815733	6
7372	120804	119.487027665429	3
7372	120828	119.491345907981	0
7372	121079	119.691345907981	1
7372	121793	120.281392947166	3
7372	122923	121.281392947166	10
7372	123437	121.679136960174	2
7372	123561	121.782494177863	5
7372	123853	122.087363285548	3
7372	124399	122.593289752921	5
7372	124504	122.68352987885	8
7372	124512	122.687630782397	8
7372	125246	123.387830782397	7
7372	125810	123.887830782397	4
7372	126015	124.092886275764	1
7372	126346	124.395327845496	2
7372	126655	124.694817032374	4
7372	127003	124.965265420992	1
7372	127666	125.465465420992	6
7372	128057	125.765465420992	2
7372	129000	126.55729041233	5
7372	129289	126.865841228179	11
7372	129654	127.173894352332	3
7372	129983	127.473894352332	3
7372	130654	127.97433331397	5
7372	131498	128.582333709051	6
7372	132449	129.46988676501	4
7372	132732	129.682333709051	11
7372	132961	129.874905226084	3
7372	132964	129.881076627313	3
7372	133159	129.988248554766	2
7372	133376	130.194820286736	1
7372	133445	130.284128004044	3
7372	133451	130.284585029969	3
7372	134258	130.984785029969	8
7372	135147	131.784785029969	10
7372	135592	132.189749885189	3
7372	135756	132.314674819241	3
7372	136118	132.620542986491	2
7372	136411	132.896085472979	6
7373	202	20.2001	0.75
7373	579	20.8001	0.375
7373	1211	21.401104764696	0.375
7373	1459	21.608832518143	0.875
7373	2547	22.510098007145	-0.125
7373	3004	22.810098007145	0.75
7373	3688	23.310649206524	0.375
7373	4005	23.614277500706	0.25
7373	4350	23.917161442206	0.75
7373	4865	24.425684630567	0.375
7373	5811	25.225684630567	0
7373	5834	25.23095092045	1
7373	6076	25.43095092045	0.875
7373	6560	25.840186590694	0.625
7373	6991	26.140386590694	0.625
7373	8337	27.138886737732	0.125
7373	9100	27.740117956524	0.625
7373	9661	28.246610390428	0.55555555224419
7373	9988	28.546645788002	0.75
7373	10550	28.946845788002	0.5
7373	11265	29.446845788002	0.5
7373	11595	29.650528197643	0.375
7373	11977	29.949616959515	0.375
7373	12093	30.050951733957	0.625
7373	12771	30.572293968329	0.5
7373	12938	30.754005725053	0
7373	12940	30.755544768495	0.125
7373	13466	31.157396503735	0.5
7373	13691	31.357396503735	0.875
7373	14019	31.6611211163	0.75
7373	14850	32.373152543844	0.125
7373	15081	32.577015115602	0.875
7373	15240	32.685431264484	0.875
7373	15544	32.985431264484	0.75
7373	15974	33.391758740328	0.625
7373	16343	33.700345563178	0.75
7373	17188	34.37470645703	0.625
7373	18011	34.940643940092	0.75
7373	18941	35.740643940092	0.125
7373	19225	35.946165782489	0.75
7373	20560	37.146165782489	-0.375
7373	21198	37.654493319453	0.5
7373	22319	38.458610891993	0
7373	22532	38.658610891993	0.875
7373	24040	39.865706566632	-0.375
7373	24405	40.168302059869	0.75
7373	24498	40.223973196027	0.75
7373	24523	40.230845840067	1
7373	24966	40.530845840067	0.75
7373	25162	40.733252979096	0.875
7373	26053	41.434850662348	0.875
7373	26535	41.844485186049	0.625
7373	29037	43.744685186049	-1.875
7373	29509	44.144685186049	0.625
7373	29787	44.353938240726	0.875
7373	30070	44.568336913956	0.875
7373	30531	44.87237356581	0.625
7373	32318	46.47237356581	-1
7373	32638	46.679278996777	0.75
7373	33170	47.079278996777	0.625
7373	33816	47.59746286074	0.375
7373	34109	47.804392476368	0.75
7373	34731	48.307141484561	0.375
7373	35654	49.107141484561	0
7373	36704	50.012939608652	0
7373	37243	50.487093494922	0
7373	37373	50.51777759119	0.375
7373	37552	50.710548559992	0.75
7373	37955	51.027382359097	0.5
7373	38123	51.197271573096	0.25
7373	38314	51.313698549667	0.375
7373	38324	51.330021905677	0.625
7373	39258	52.131621628572	0
7373	40236	53.031621628572	-0.125
7373	41032	53.639603670186	0.125
7373	41406	53.928257949311	0.75
7373	41560	54.042793610028	0.625
7373	41664	54.12311935795	0.75
7373	41985	54.328343971504	0.75
7373	43357	55.431482174619	-0.375
7373	44306	56.133104883645	0.125
7373	44688	56.4375837669	0.75
7373	44695	56.441255449692	0.75
7373	44988	56.649610177417	0.75
7373	45195	56.849610177417	0.875
7373	45477	57.055764769221	0.875
7373	46083	57.537508980916	0.75
7373	46534	57.937508980916	0.625
7373	46922	58.244072233794	0.75
7373	46979	58.298109033302	0.75
7373	46997	58.301462376067	1
7373	47263	58.501462376067	0.875
7373	48167	59.101926758135	0.25
7373	48836	59.601926758135	0.5
7373	50027	60.607722560169	0.375
7373	51451	61.895122291931	0.75
7373	51817	62.201736834441	0.75
7373	52114	62.410857701576	0.25
7373	52236	62.502458745675	0.625
7373	52269	62.508987137494	0.75
7373	52900	62.909187137494	0.5
7373	53332	63.209187137494	0.75
7373	53923	63.714678878705	0.5
7373	54111	63.883642927158	0.75
7373	54327	64.086446771422	0.75
7373	55106	64.786446771422	0.25
7373	55325	64.996066811746	0.875
7373	55489	65.115627978263	0.875
7373	55825	65.402973545588	0.625
7373	55840	65.404944934589	1
7373	56233	65.640284858677	0.875
7373	56877	66.137236635032	1
7373	57385	66.54564353897	0.75
7373	57967	67.04564353897	0.5
7373	58678	67.653217866769	0.25
7373	59913	68.653217866769	-0.25
7373	60547	69.248293491805	0.66666665673256
7373	61382	69.948293491805	0.25
7373	61514	70.056978150045	0.625
7373	62110	70.552200865475	0.25
7373	62376	70.762037955075	0.125
7373	62713	71.05326068032	0.375
7373	62900	71.178157711088	0.625
7373	62915	71.183204580386	0.5
7373	63622	71.785016500964	0.25
7373	64823	72.885016500964	-0.375
7373	65339	73.286100674148	0.625
7373	65429	73.375187310303	0.625
7373	66257	73.987019450994	0.25
7373	68097	75.689383768584	-1.375
7373	68491	75.989383768584	0.75
7373	68773	76.201996074425	0.875
7373	69439	76.709544023401	0.5
7373	69828	77.011078777823	0.625
7373	69847	77.017615527573	0.125
7373	70047	77.187165366565	0.625
7373	70576	77.589201089979	0.5
7373	70810	77.789201089979	0.875
7373	71231	78.193766835878	0.625
7373	71460	78.393966835878	0.75
7373	71821	78.693966835878	0.75
7373	72204	78.997151294186	0.75
7373	72449	79.202884221422	0.625
7373	72751	79.408637350955	0.75
7373	72931	79.51224898265	0.75
7373	73429	79.918897141867	0.375
7373	74035	80.518897141867	0.375
7373	74374	80.827347155801	0.75
7373	75063	81.349008307025	0.25
7373	75345	81.629840494786	0.125
7373	75521	81.741563266748	0.25
7373	75654	81.862838275903	0.25
7373	76343	82.472409578233	0.25
7373	76567	82.674254579198	0.875
7373	76950	83.080167631661	0.5
7373	77154	83.283857403099	0.875
7373	77984	83.89055195958	0.25
7373	78763	84.59055195958	0.25
7373	79563	85.299214587905	0.25
7373	79771	85.503719921574	0.875
7373	79918	85.609444385004	0.875
7373	80356	86.009444385004	0.625
7373	80534	86.217079185762	0.875
7373	81715	87.24951370173	0.625
7373	81975	87.42528838671	-0.625
7373	82238	87.628242344758	0.875
7373	82642	87.928442344758	0.625
7373	83045	88.228442344758	0.75
7373	83236	88.429208649829	0.875
7373	83678	88.835409159868	0.625
7373	84014	89.135644825722	0.75
7373	84044	89.170323101428	0.5
7373	84241	89.379518484358	0.875
7373	84483	89.583635864188	0.75
7373	84728	89.783635864188	0.75
7373	85423	90.393138142465	0.375
7373	85825	90.693138142465	0.625
7373	86272	91.094171429157	0.625
7373	87000	91.694780979066	0.375
7373	87004	91.696143618607	0.375
7373	87442	92.101096296392	0.625
7373	87444	92.101700826963	0.625
7373	88130	92.702911517345	0.375
7373	88179	92.709130296847	0.375
7373	88751	93.112621757939	0.25
7373	89452	93.712621757939	0.375
7373	89707	93.914768863498	0.875
7373	89936	94.124432660078	0.875
7373	89951	94.124632660078	1
7373	90619	94.732260261224	0.375
7373	91419	95.437857969246	0.125
7373	92590	96.363726972866	0.125
7373	93032	96.763726972866	0.625
7373	93864	97.468443325185	0.25
7373	94244	97.772013250701	0.75
7373	94251	97.776437739517	0.75
7373	94495	97.978157933431	0.875
7373	94647	98.080929677476	0.875
7373	95385	98.680929677476	0.375
7373	95635	98.914949520462	0.125
7373	95905	99.119691775223	0.75
7373	96326	99.519691775223	0.66666665673256
7373	96496	99.665322912737	0.625
7373	96682	99.804878452585	0.75
7373	96841	99.927879593	0.5
7373	98844	101.628565925562	-1.25
7373	99424	102.128565925562	0.5
7373	99914	102.638527990976	0.5
7373	100370	103.046984385806	0.625
7373	101125	103.648337759468	0.375
7373	101498	103.936909118194	0.875
7373	101551	103.962480092199	0.125
7373	101770	104.15013395276	0.875
7373	102107	104.459674600049	0.625
7373	103063	105.159674600049	0.25
7373	103531	105.566832274029	0.625
7373	104526	106.367032274029	0
7373	105029	106.767032274029	0.625
7373	105439	107.080204425954	0.75
7373	107210	108.486088575591	-0.875
7373	107776	108.886088575591	0.5
7373	108144	109.186841055036	0.75
7373	108607	109.573389429481	1
7373	109111	109.9835916802	0.625
7373	109378	110.1837916802	0.75
7373	109848	110.542057534481	0.875
7373	110672	111.242057534481	0.25
7373	110785	111.349955623319	0.875
7373	111910	112.056543048847	0.125
7373	112428	112.581315980504	0.625
7373	112510	112.656543048847	0.25
7373	112641	112.783175407139	0.875
7373	113168	113.284828199083	0.375
7373	113526	113.584828199083	0.75
7373	115001	114.885483082628	-0.625
7373	115193	115.094968373784	0.875
7373	115696	115.499311883646	0.625
7373	115834	115.609799271901	0.625
7373	115960	115.702051944246	0.875
7373	117014	116.404159995892	0
7373	117268	116.604159995892	0.875
7373	117700	117.010216376303	0.625
7373	117889	117.215587772281	0.875
7373	118249	117.51720016747	0.625
7373	119090	118.21720016747	0.25
7373	119694	118.61419322652	0.625
7373	120232	119.02695609128	0
7373	120480	119.221919815733	0.25
7373	120804	119.487027665429	0.625
7373	120828	119.491345907981	1
7373	121079	119.691345907981	0.875
7373	121793	120.281392947166	0.625
7373	122923	121.281392947166	-0.25
7373	123437	121.679136960174	0.75
7373	123561	121.782494177863	0.375
7373	123853	122.087363285548	0.625
7373	124399	122.593289752921	0.375
7373	124504	122.68352987885	0
7373	124512	122.687630782397	0
7373	125246	123.387830782397	0.125
7373	125810	123.887830782397	0.5
7373	126015	124.092886275764	0.875
7373	126346	124.395327845496	0.75
7373	126655	124.694817032374	0.5
7373	127003	124.965265420992	0.875
7373	127666	125.465465420992	0.25
7373	128057	125.765465420992	0.75
7373	129000	126.55729041233	0.375
7373	129289	126.865841228179	-0.375
7373	129654	127.173894352332	0.625
7373	129983	127.473894352332	0.625
7373	130654	127.97433331397	0.375
7373	131498	128.582333709051	0.25
7373	132449	129.46988676501	0.5
7373	132732	129.682333709051	-0.375
7373	132961	129.874905226084	0.625
7373	132964	129.881076627313	0.625
7373	133159	129.988248554766	0.75
7373	133376	130.194820286736	0.875
7373	133445	130.284128004044	0.625
7373	133451	130.284585029969	0.625
7373	134258	130.984785029969	0
7373	135147	131.784785029969	-0.25
7373	135592	132.189749885189	0.625
7373	135756	132.314674819241	0.625
7373	136118	132.620542986491	0.75
7373	136411	132.896085472979	0.25
7374	202	20.2001	0.2
7374	579	20.8001	0.6
7374	1211	21.401104764696	0.6
7374	1459	21.608832518143	0.2
7374	2547	22.510098007145	0.9
7374	3004	22.810098007145	0.3
7374	3688	23.310649206524	0.5
7374	4005	23.614277500706	0.7
7374	4350	23.917161442206	0.3
7374	4865	24.425684630567	0.5
7374	5811	25.225684630567	0.8
7374	5834	25.23095092045	0
7374	6076	25.43095092045	0.2
7374	6560	25.840186590694	0.4
7374	6991	26.140386590694	0.3
7374	8337	27.138886737732	0.6
7374	9100	27.740117956524	0.3
7374	9661	28.246610390428	0.5
7374	9988	28.546645788002	0.3
7374	10550	28.946845788002	0.4
7374	11265	29.446845788002	0.5
7374	11595	29.650528197643	0.5
7374	11977	29.949616959515	0.5
7374	12093	30.050951733957	0.4
7374	12771	30.572293968329	0.5
7374	12938	30.754005725053	0.7
7374	12940	30.755544768495	0.8
7374	13466	31.157396503735	0.4
7374	13691	31.357396503735	0.2
7374	14019	31.6611211163	0.3
7374	14850	32.373152543844	0.7
7374	15081	32.577015115602	0.2
7374	15240	32.685431264484	0.1
7374	15544	32.985431264484	0.3
7374	15974	33.391758740328	0.4
7374	16343	33.700345563178	0.3
7374	17188	34.37470645703	0.4
7374	18011	34.940643940092	0.2
7374	18941	35.740643940092	0.8
7374	19225	35.946165782489	0.2
7374	20560	37.146165782489	1.2
7374	21198	37.654493319453	0.5
7374	22319	38.458610891993	0.8
7374	22532	38.658610891993	0.2
7374	24040	39.865706566632	1.2
7374	24405	40.168302059869	0.3
7374	24498	40.223973196027	0.2
7374	24523	40.230845840067	0
7374	24966	40.530845840067	0.3
7374	25162	40.733252979096	0.2
7374	26053	41.434850662348	0.1
7374	26535	41.844485186049	0.4
7374	29037	43.744685186049	1.9
7374	29509	44.144685186049	0.4
7374	29787	44.353938240726	0.2
7374	30070	44.568336913956	0.2
7374	30531	44.87237356581	0.3
7374	32318	46.47237356581	1.6
7374	32638	46.679278996777	0.2
7374	33170	47.079278996777	0.4
7374	33816	47.59746286074	0.5
7374	34109	47.804392476368	0.2
7374	34731	48.307141484561	0.5
7374	35654	49.107141484561	0.8
7374	36704	50.012939608652	0.9
7374	37243	50.487093494922	0.9
7374	37373	50.51777759119	0.5
7374	37552	50.710548559992	0.3
7374	37955	51.027382359097	0.5
7374	38123	51.197271573096	0.7
7374	38314	51.313698549667	0.6
7374	38324	51.330021905677	0.3
7374	39258	52.131621628572	0.8
7374	40236	53.031621628572	0.9
7374	41032	53.639603670186	0.6
7374	41406	53.928257949311	0.3
7374	41560	54.042793610028	0.4
7374	41664	54.12311935795	0.3
7374	41985	54.328343971504	0.2
7374	43357	55.431482174619	1.1
7374	44306	56.133104883645	0.7
7374	44688	56.4375837669	0.3
7374	44695	56.441255449692	0.3
7374	44988	56.649610177417	0.2
7374	45195	56.849610177417	0.2
7374	45477	57.055764769221	0.2
7374	46083	57.537508980916	0.2
7374	46534	57.937508980916	0.4
7374	46922	58.244072233794	0.3
7374	46979	58.298109033302	0.3
7374	46997	58.301462376067	0
7374	47263	58.501462376067	0.2
7374	48167	59.101926758135	0.6
7374	48836	59.601926758135	0.5
7374	50027	60.607722560169	0.4
7374	51451	61.895122291931	0.3
7374	51817	62.201736834441	0.3
7374	52114	62.410857701576	0.7
7374	52236	62.502458745675	0.4
7374	52269	62.508987137494	0.3
7374	52900	62.909187137494	0.4
7374	53332	63.209187137494	0.3
7374	53923	63.714678878705	0.5
7374	54111	63.883642927158	0.3
7374	54327	64.086446771422	0.2
7374	55106	64.786446771422	0.7
7374	55325	64.996066811746	0.2
7374	55489	65.115627978263	0.2
7374	55825	65.402973545588	0.4
7374	55840	65.404944934589	0
7374	56233	65.640284858677	0.1
7374	56877	66.137236635032	0
7374	57385	66.54564353897	0.2
7374	57967	67.04564353897	0.5
7374	58678	67.653217866769	0.6
7374	59913	68.653217866769	1
7374	60547	69.248293491805	0.3
7374	61382	69.948293491805	0.7
7374	61514	70.056978150045	0.4
7374	62110	70.552200865475	0.6
7374	62376	70.762037955075	0.7
7374	62713	71.05326068032	0.5
7374	62900	71.178157711088	0.3
7374	62915	71.183204580386	0.5
7374	63622	71.785016500964	0.6
7374	64823	72.885016500964	1.1
7374	65339	73.286100674148	0.4
7374	65429	73.375187310303	0.4
7374	66257	73.987019450994	0.7
7374	68097	75.689383768584	1.7
7374	68491	75.989383768584	0.3
7374	68773	76.201996074425	0.2
7374	69439	76.709544023401	0.5
7374	69828	77.011078777823	0.3
7374	69847	77.017615527573	0.6
7374	70047	77.187165366565	0.4
7374	70576	77.589201089979	0.4
7374	70810	77.789201089979	0.2
7374	71231	78.193766835878	0.4
7374	71460	78.393966835878	0.2
7374	71821	78.693966835878	0.3
7374	72204	78.997151294186	0.3
7374	72449	79.202884221422	0.4
7374	72751	79.408637350955	0.2
7374	72931	79.51224898265	0.3
7374	73429	79.918897141867	0.4
7374	74035	80.518897141867	0.6
7374	74374	80.827347155801	0.3
7374	75063	81.349008307025	0.6
7374	75345	81.629840494786	0.8
7374	75521	81.741563266748	0.7
7374	75654	81.862838275903	0.5
7374	76343	82.472409578233	0.6
7374	76567	82.674254579198	0.2
7374	76950	83.080167631661	0.4
7374	77154	83.283857403099	0.2
7374	77984	83.89055195958	0.6
7374	78763	84.59055195958	0.7
7374	79563	85.299214587905	0.7
7374	79771	85.503719921574	0.2
7374	79918	85.609444385004	0.1
7374	80356	86.009444385004	0.4
7374	80534	86.217079185762	0.2
7374	81715	87.24951370173	0.4
7374	81975	87.42528838671	1.2
7374	82238	87.628242344758	0.2
7374	82642	87.928442344758	0.3
7374	83045	88.228442344758	0.3
7374	83236	88.429208649829	0.2
7374	83678	88.835409159868	0.4
7374	84014	89.135644825722	0.3
7374	84044	89.170323101428	0.5
7374	84241	89.379518484358	0.2
7374	84483	89.583635864188	0.2
7374	84728	89.783635864188	0.2
7374	85423	90.393138142465	0.5
7374	85825	90.693138142465	0.3
7374	86272	91.094171429157	0.4
7374	87000	91.694780979066	0.6
7374	87004	91.696143618607	0.6
7374	87442	92.101096296392	0.4
7374	87444	92.101700826963	0.4
7374	88130	92.702911517345	0.6
7374	88179	92.709130296847	0.6
7374	88751	93.112621757939	0.4
7374	89452	93.712621757939	0.6
7374	89707	93.914768863498	0.2