version 2
run Stability-135-20130528-00:59:36-21385
attr configname Stability
attr datetime 20130528-00:59:36
attr experiment Stability
attr inifile omnetpp.ini
attr iterationvars $0=1e-7
attr iterationvars2 "$0=1e-7, $repetition=5"
attr measurement $0=1e-7
attr network Network
attr processid 21385
attr repetition 5
attr replication #5
attr resultdir results
attr runnumber 135
attr seedset 135

vector 13191  Network.churner  inGoingSizeSig:vector  ETV
vector 13095  Network.dyn_peer[0]  lookupHopsSig:vector  ETV
vector 13096  Network.dyn_peer[0]  lookupStabilitySig:vector  ETV
vector 13097  Network.dyn_peer[0]  lookupTimeSig:vector  ETV
vector 13137  Network.dyn_peer[14]  lookupHopsSig:vector  ETV
vector 13138  Network.dyn_peer[14]  lookupStabilitySig:vector  ETV
vector 13139  Network.dyn_peer[14]  lookupTimeSig:vector  ETV
vector 13149  Network.dyn_peer[18]  lookupHopsSig:vector  ETV
vector 13150  Network.dyn_peer[18]  lookupStabilitySig:vector  ETV
vector 13151  Network.dyn_peer[18]  lookupTimeSig:vector  ETV
vector 13164  Network.dyn_peer[23]  lookupHopsSig:vector  ETV
vector 13165  Network.dyn_peer[23]  lookupStabilitySig:vector  ETV
vector 13166  Network.dyn_peer[23]  lookupTimeSig:vector  ETV
vector 13176  Network.dyn_peer[27]  lookupHopsSig:vector  ETV
vector 13177  Network.dyn_peer[27]  lookupStabilitySig:vector  ETV
vector 13178  Network.dyn_peer[27]  lookupTimeSig:vector  ETV
vector 13098  Network.dyn_peer[1]  lookupHopsSig:vector  ETV
vector 13099  Network.dyn_peer[1]  lookupStabilitySig:vector  ETV
vector 13100  Network.dyn_peer[1]  lookupTimeSig:vector  ETV
vector 13107  Network.dyn_peer[4]  lookupHopsSig:vector  ETV
vector 13108  Network.dyn_peer[4]  lookupStabilitySig:vector  ETV
vector 13109  Network.dyn_peer[4]  lookupTimeSig:vector  ETV
vector 13110  Network.dyn_peer[5]  lookupHopsSig:vector  ETV
vector 13111  Network.dyn_peer[5]  lookupStabilitySig:vector  ETV
vector 13112  Network.dyn_peer[5]  lookupTimeSig:vector  ETV
vector 13113  Network.dyn_peer[6]  lookupHopsSig:vector  ETV
vector 13114  Network.dyn_peer[6]  lookupStabilitySig:vector  ETV
vector 13115  Network.dyn_peer[6]  lookupTimeSig:vector  ETV
vector 13131  Network.dyn_peer[12]  lookupHopsSig:vector  ETV
vector 13132  Network.dyn_peer[12]  lookupStabilitySig:vector  ETV
vector 13133  Network.dyn_peer[12]  lookupTimeSig:vector  ETV
vector 13140  Network.dyn_peer[15]  lookupHopsSig:vector  ETV
vector 13141  Network.dyn_peer[15]  lookupStabilitySig:vector  ETV
vector 13142  Network.dyn_peer[15]  lookupTimeSig:vector  ETV
vector 13161  Network.dyn_peer[22]  lookupHopsSig:vector  ETV
vector 13162  Network.dyn_peer[22]  lookupStabilitySig:vector  ETV
vector 13163  Network.dyn_peer[22]  lookupTimeSig:vector  ETV
vector 13179  Network.dyn_peer[28]  lookupHopsSig:vector  ETV
vector 13180  Network.dyn_peer[28]  lookupStabilitySig:vector  ETV
vector 13181  Network.dyn_peer[28]  lookupTimeSig:vector  ETV
vector 13104  Network.dyn_peer[3]  lookupHopsSig:vector  ETV
vector 13105  Network.dyn_peer[3]  lookupStabilitySig:vector  ETV
vector 13106  Network.dyn_peer[3]  lookupTimeSig:vector  ETV
vector 13116  Network.dyn_peer[7]  lookupHopsSig:vector  ETV
vector 13117  Network.dyn_peer[7]  lookupStabilitySig:vector  ETV
vector 13118  Network.dyn_peer[7]  lookupTimeSig:vector  ETV
vector 13119  Network.dyn_peer[8]  lookupHopsSig:vector  ETV
vector 13120  Network.dyn_peer[8]  lookupStabilitySig:vector  ETV
vector 13121  Network.dyn_peer[8]  lookupTimeSig:vector  ETV
vector 13125  Network.dyn_peer[10]  lookupHopsSig:vector  ETV
vector 13126  Network.dyn_peer[10]  lookupStabilitySig:vector  ETV
vector 13127  Network.dyn_peer[10]  lookupTimeSig:vector  ETV
vector 13143  Network.dyn_peer[16]  lookupHopsSig:vector  ETV
vector 13144  Network.dyn_peer[16]  lookupStabilitySig:vector  ETV
vector 13145  Network.dyn_peer[16]  lookupTimeSig:vector  ETV
vector 13146  Network.dyn_peer[17]  lookupHopsSig:vector  ETV
vector 13147  Network.dyn_peer[17]  lookupStabilitySig:vector  ETV
vector 13148  Network.dyn_peer[17]  lookupTimeSig:vector  ETV
vector 13152  Network.dyn_peer[19]  lookupHopsSig:vector  ETV
vector 13153  Network.dyn_peer[19]  lookupStabilitySig:vector  ETV
vector 13154  Network.dyn_peer[19]  lookupTimeSig:vector  ETV
vector 13158  Network.dyn_peer[21]  lookupHopsSig:vector  ETV
vector 13159  Network.dyn_peer[21]  lookupStabilitySig:vector  ETV
vector 13160  Network.dyn_peer[21]  lookupTimeSig:vector  ETV
vector 13173  Network.dyn_peer[26]  lookupHopsSig:vector  ETV
vector 13174  Network.dyn_peer[26]  lookupStabilitySig:vector  ETV
vector 13175  Network.dyn_peer[26]  lookupTimeSig:vector  ETV
vector 13122  Network.dyn_peer[9]  lookupHopsSig:vector  ETV
vector 13123  Network.dyn_peer[9]  lookupStabilitySig:vector  ETV
vector 13124  Network.dyn_peer[9]  lookupTimeSig:vector  ETV
vector 13170  Network.dyn_peer[25]  lookupHopsSig:vector  ETV
vector 13171  Network.dyn_peer[25]  lookupStabilitySig:vector  ETV
vector 13172  Network.dyn_peer[25]  lookupTimeSig:vector  ETV
vector 13182  Network.dyn_peer[29]  lookupHopsSig:vector  ETV
vector 13183  Network.dyn_peer[29]  lookupStabilitySig:vector  ETV
vector 13184  Network.dyn_peer[29]  lookupTimeSig:vector  ETV
vector 13185  Network.dyn_peer[30]  lookupHopsSig:vector  ETV
vector 13186  Network.dyn_peer[30]  lookupStabilitySig:vector  ETV
vector 13187  Network.dyn_peer[30]  lookupTimeSig:vector  ETV
vector 13188  Network.dyn_peer[31]  lookupHopsSig:vector  ETV
vector 13189  Network.dyn_peer[31]  lookupStabilitySig:vector  ETV
vector 13190  Network.dyn_peer[31]  lookupTimeSig:vector  ETV
vector 13128  Network.dyn_peer[11]  lookupHopsSig:vector  ETV
vector 13129  Network.dyn_peer[11]  lookupStabilitySig:vector  ETV
vector 13130  Network.dyn_peer[11]  lookupTimeSig:vector  ETV
vector 13167  Network.dyn_peer[24]  lookupHopsSig:vector  ETV
vector 13168  Network.dyn_peer[24]  lookupStabilitySig:vector  ETV
vector 13169  Network.dyn_peer[24]  lookupTimeSig:vector  ETV
vector 13134  Network.dyn_peer[13]  lookupHopsSig:vector  ETV
vector 13135  Network.dyn_peer[13]  lookupStabilitySig:vector  ETV
vector 13136  Network.dyn_peer[13]  lookupTimeSig:vector  ETV
vector 13155  Network.dyn_peer[20]  lookupHopsSig:vector  ETV
vector 13156  Network.dyn_peer[20]  lookupStabilitySig:vector  ETV
vector 13157  Network.dyn_peer[20]  lookupTimeSig:vector  ETV
vector 13101  Network.dyn_peer[2]  lookupHopsSig:vector  ETV
vector 13102  Network.dyn_peer[2]  lookupStabilitySig:vector  ETV
vector 13103  Network.dyn_peer[2]  lookupTimeSig:vector  ETV
13095	29	20.0000000001	0
13095	281	20.3000000001	2
13095	620	20.8001000023	3
13095	868	21.102947501791	2
13095	1580	21.803391335109	8
13095	1951	22.103391335109	2
13095	2170	22.309983642002	3
13095	2453	22.521937469022	5
13095	2996	23.023077406344	5
13095	3496	23.523077406344	4
13095	4334	24.132566900826	5
13095	4410	24.148948062417	5
13095	4561	24.24921034277	1
13095	6199	25.44921034277	12
13095	7300	26.351687983302	8
13095	7788	26.755880282624	6
13095	8061	26.958270336475	5
13095	8076	26.959121749573	1
13095	8327	27.161307304738	1
13095	8374	27.165608838293	1
13095	9157	27.766453463305	6
13095	9350	27.966453463305	1
13095	9549	28.158509038603	1
13095	10425	28.86518013911	9
13095	10678	29.06518013911	1
13095	12149	30.369005469126	16
13095	12337	30.569005469126	1
13095	12804	30.976753951027	4
13095	13105	31.283560875926	2
13095	13256	31.407044529775	7
13095	14038	32.113374760043	7
13095	14988	32.913374760043	7
13095	15518	33.323098634967	5
13095	15904	33.623098634967	3
13095	16625	34.225478452901	6
13095	16868	34.425578453001	3
13095	17263	34.825578453001	3
13095	17789	35.23103657508	3
13095	18362	35.736933255057	5
13095	18737	36.036933255057	2
13095	20398	37.453946058243	14
13095	20901	37.853946058243	3
13095	21236	38.154885062098	2
13095	21747	38.559470511795	3
13095	22069	38.866854617941	2
13095	22340	39.072635735401	2
13095	22686	39.372635735401	2
13095	23323	39.877410694658	4
13095	23751	40.158574507456	0
13095	23903	40.285714024269	4
13095	24391	40.695246341227	3
13095	24671	40.961417260434	3
13095	24769	41.102477846449	3
13095	25163	41.41056039392	3
13095	25559	41.71056039392	2
13095	26160	42.204536031221	2
13095	26178	42.206793995848	0
13095	26719	42.706793995848	4
13095	27626	43.508429373751	8
13095	27761	43.61567856375	1
13095	28001	43.81567856375	1
13095	28601	44.324552038459	5
13095	29075	44.724552038459	3
13095	30016	45.429077606576	6
13095	30556	45.832109673118	3
13095	30928	46.136435835639	2
13095	31259	46.430176417871	7
13095	31548	46.745612337652	5
13095	32042	47.232866498836	7
13095	32090	47.254117858873	4
13095	32297	47.438263775839	6
13095	32529	47.63828126136	4
13095	32673	47.741290996663	1
13095	33022	48.041290996663	2
13095	33426	48.352446125029	2
13095	33728	48.558304019651	1
13095	34487	49.165036027549	7
13095	34715	49.362103737581	7
13095	35193	49.670600027776	3
13095	36331	50.670600027776	9
13095	36579	50.872273721381	1
13095	37140	51.319402074713	7
13095	37280	51.427329000606	1
13095	38142	52.127329000606	6
13095	38986	52.840330020832	7
13095	39040	52.898159682341	3
13095	39230	53.042136456198	1
13095	39528	53.242961998283	2
13095	39869	53.511773957162	4
13095	39982	53.604339156784	8
13095	40137	53.721752334263	2
13095	40203	53.802870185048	8
13095	40350	53.910786089093	2
13095	40383	53.950812281031	6
13095	41674	54.859452272034	9
13095	41957	55.059452272034	1
13095	42363	55.366917619146	2
13095	43255	56.138656083602	4
13095	43578	56.448155452765	3
13095	43841	56.667925211938	12
13095	44416	57.152207944253	7
13095	45713	58.152307944353	10
13095	46956	59.13521742067	3
13095	47103	59.252307944353	10
13095	47347	59.438182442657	2
13095	47636	59.646823040655	1
13095	47874	59.854275045021	5
13095	47884	59.857501890922	5
13095	48592	60.457601891022	7
13095	49833	61.569433483955	12
13095	49979	61.669533484055	1
13095	51099	62.569533484055	8
13095	51924	63.270372904199	7
13095	52325	63.669466292217	5
13095	52753	64.078955385716	3
13095	53067	64.316260046672	3
13095	53121	64.382698000333	10
13095	53883	65.089383826193	7
13095	55203	66.197992487943	7
13095	55599	66.497992487943	2
13095	55904	66.700378234528	1
13095	55938	66.715869344798	1
13095	56294	67.047930148389	2
13095	56464	67.150501495409	1
13095	58046	68.407687548148	2
13095	58223	68.525951421099	6
13095	58371	68.634351996487	1
13095	58597	68.834351996487	1
13095	59837	69.735079765695	4
13095	60575	70.335079765695	5
13095	61323	70.943951711384	6
13095	62126	71.653616223313	6
13095	62455	71.967008513007	6
13095	62560	72.062851262894	3
13095	63111	72.525246904189	11
13095	63644	72.93477883705	5
13095	64408	73.53477883705	5
13095	64653	73.757418173106	3
13095	64936	74.035684903555	4
13095	65523	74.538675021041	4
13095	65756	74.745959492016	2
13095	66635	75.345959492016	5
13095	68453	76.947829251303	16
13095	68458	76.963443896772	16
13095	68488	76.965218086481	0
13095	68853	77.265218086481	2
13095	69624	77.973305809726	6
13095	70100	78.378300792428	3
13095	70445	78.697615232899	2
13095	71368	79.410396764328	7
13095	71637	79.611661543511	1
13095	72000	79.911761543611	3
13095	72360	80.211761543611	2
13095	72994	80.716839307306	4
13095	73054	80.746582163297	4
13095	73815	81.352676974629	6
13095	74124	81.652676974629	2
13095	75011	82.458762244764	8
13095	75015	82.459265527967	5
13095	75536	82.861670346253	4
13095	75538	82.862099204887	4
13095	76348	83.562199204987	7
13095	76844	83.962199204987	3
13095	77238	84.36421004084	3
13095	77476	84.566990961894	1
13095	77778	84.820014483909	1
13095	77992	85.024062573806	1
13095	78281	85.245807688178	8
13095	78297	85.245907688278	0
13095	79253	85.945907688278	6
13095	79748	86.3619558626	4
13095	80244	86.762272385538	3
13095	80391	86.867039227701	1
13095	80642	87.067039227701	1
13095	81342	87.773854187853	6
13095	81614	88.082923864766	2
13095	82311	88.787360699506	6
13095	82655	89.091126112983	2
13095	83096	89.491673780904	3
13095	83593	89.895628559774	1
13095	84191	90.402074695439	4
13095	84293	90.501242420934	10
13095	84884	91.00343673994	6
13095	84899	91.007694758372	6
13095	85338	91.314133220363	4
13095	86129	92.014133220363	6
13095	86693	92.514233220463	5
13095	87617	93.314233220463	8
13095	87777	93.420740182803	0
13095	87990	93.62513588689	1
13095	87993	93.625666944471	1
13095	88057	93.709288967014	6
13095	88493	94.083459020573	1
13095	88544	94.11446696729	3
13095	88600	94.131730439558	4
13095	88604	94.13200302405	4
13095	88619	94.13210302415	0
13095	88788	94.33210302415	1
13095	88793	94.333209772093	1
13095	89095	94.634982450866	2
13095	89101	94.638497528312	2
13095	90243	95.638597528412	12
13095	91246	96.446789555418	5
13095	91773	96.946789555418	4
13095	91917	97.050007694222	1
13095	93257	98.250007694222	11
13095	93529	98.451358804419	1
13095	94375	99.155572129171	8
13095	94696	99.455572129171	2
13095	95425	100.065392785878	5
13095	95431	100.066493655959	5
13095	96216	100.746246188004	9
13095	96324	100.835391503177	12
13095	96730	101.135491503277	3
13095	97354	101.643371253374	4
13095	97624	101.951033632398	3
13095	98123	102.481319395915	1
13095	98456	102.770952995654	2
13095	98558	102.871052995754	1
13095	99490	103.571052995754	6
13095	99872	103.891174147362	2
13095	100310	104.212050281012	2
13095	101007	104.814330533329	8
13095	101636	105.416397794168	5
13095	101958	105.729855557793	2
13095	102375	106.102272074815	4
13095	102673	106.410301425724	2
13095	102914	106.636715142248	9
13095	103398	107.046624564545	3
13095	103917	107.458289332368	3
13095	104542	107.863598425499	4
13095	105725	108.863598425499	11
13095	106535	109.568678143216	9
13095	107628	110.368678143216	8
13095	108136	110.847494951953	2
13095	108385	111.077240042185	6
13095	108548	111.2650972605	3
13095	109033	111.669332366957	4
13095	110009	112.477692136572	7
13095	110111	112.551676860111	2
13095	110293	112.711675254221	3
13095	111057	113.325490557516	5
13095	111469	113.657086916071	10
13095	111478	113.657650771473	10
13095	112382	114.360581980197	8
13095	113797	115.460581980197	10
13095	114296	115.826119848446	4
13095	114420	115.916898408411	1
13095	114454	115.962526375244	5
13095	114844	116.271907487146	3
13095	114923	116.323955245292	3
13095	114999	116.39116000091	5
13095	115724	116.994523231571	6
13095	116730	117.994523231571	11
13095	117530	118.698710999341	8
13095	118498	119.586471284966	3
13095	118765	119.786571285066	2
13095	119419	120.386571285066	5
13095	119860	120.79552062487	4
13095	119932	120.825947630964	3
13095	120268	121.096511765043	3
13095	120607	121.398467764444	2
13095	120745	121.534249724671	6
13095	121317	122.034349724771	5
13095	122120	122.734349724771	6
13095	122167	122.747174840163	3
13095	122791	123.254416207911	5
13095	123991	124.254416207911	12
13095	124352	124.56188461844	3
13095	125075	125.16188461844	5
13095	125449	125.46425346206	2
13095	125915	125.867899085167	3
13095	126206	126.170256874759	3
13095	126713	126.670256874759	5
13095	127210	127.076038724751	3
13095	128168	127.884729935665	8
13095	129221	128.698698882289	6
13095	131041	130.198698882289	15
13095	131515	130.674911065815	9
13095	131733	130.880652548087	1
13095	133481	132.186686723044	14
13095	134030	132.686686723044	4
13095	135223	133.990715785368	14
13095	135368	134.116120716226	12
13095	135475	134.198938932643	1
13095	136048	134.702769911832	4
13095	136122	134.73416021064	7
13095	136451	134.943935160323	2
13095	137677	135.846881015988	9
13095	138116	136.253879231668	3
13095	138580	136.662106315981	3
13096	29	20.0000000001	1
13096	281	20.3000000001	0.75
13096	620	20.8001000023	0.625
13096	868	21.102947501791	0.75
13096	1580	21.803391335109	0
13096	1951	22.103391335109	0.75
13096	2170	22.309983642002	0.625
13096	2453	22.521937469022	0.375
13096	2996	23.023077406344	0.375
13096	3496	23.523077406344	0.5
13096	4334	24.132566900826	0.375
13096	4410	24.148948062417	0.375
13096	4561	24.24921034277	0.875
13096	6199	25.44921034277	-0.5
13096	7300	26.351687983302	0
13096	7788	26.755880282624	0.25
13096	8061	26.958270336475	0.375
13096	8076	26.959121749573	0.875
13096	8327	27.161307304738	0.875
13096	8374	27.165608838293	0.875
13096	9157	27.766453463305	0.25
13096	9350	27.966453463305	0.875
13096	9549	28.158509038603	0.875
13096	10425	28.86518013911	-0.125
13096	10678	29.06518013911	0.875
13096	12149	30.369005469126	-1
13096	12337	30.569005469126	0.875
13096	12804	30.976753951027	0.5
13096	13105	31.283560875926	0.77777777612209
13096	13256	31.407044529775	0.125
13096	14038	32.113374760043	0.125
13096	14988	32.913374760043	0.125
13096	15518	33.323098634967	0.375
13096	15904	33.623098634967	0.625
13096	16625	34.225478452901	0.25
13096	16868	34.425578453001	0.625
13096	17263	34.825578453001	0.625
13096	17789	35.23103657508	0.625
13096	18362	35.736933255057	0.375
13096	18737	36.036933255057	0.75
13096	20398	37.453946058243	-0.75
13096	20901	37.853946058243	0.625
13096	21236	38.154885062098	0.75
13096	21747	38.559470511795	0.625
13096	22069	38.866854617941	0.75
13096	22340	39.072635735401	0.75
13096	22686	39.372635735401	0.75
13096	23323	39.877410694658	0.5
13096	23751	40.158574507456	1
13096	23903	40.285714024269	0.5
13096	24391	40.695246341227	0.625
13096	24671	40.961417260434	0.625
13096	24769	41.102477846449	0.625
13096	25163	41.41056039392	0.625
13096	25559	41.71056039392	0.75
13096	26160	42.204536031221	0.75
13096	26178	42.206793995848	1
13096	26719	42.706793995848	0.5
13096	27626	43.508429373751	0
13096	27761	43.61567856375	0.875
13096	28001	43.81567856375	0.875
13096	28601	44.324552038459	0.375
13096	29075	44.724552038459	0.625
13096	30016	45.429077606576	0.25
13096	30556	45.832109673118	0.625
13096	30928	46.136435835639	0.75
13096	31259	46.430176417871	0.125
13096	31548	46.745612337652	0.375
13096	32042	47.232866498836	0.125
13096	32090	47.254117858873	0.5
13096	32297	47.438263775839	0.25
13096	32529	47.63828126136	0.5
13096	32673	47.741290996663	0.875
13096	33022	48.041290996663	0.75
13096	33426	48.352446125029	0.75
13096	33728	48.558304019651	0.875
13096	34487	49.165036027549	0.125
13096	34715	49.362103737581	0.125
13096	35193	49.670600027776	0.625
13096	36331	50.670600027776	-0.125
13096	36579	50.872273721381	0.875
13096	37140	51.319402074713	0.125
13096	37280	51.427329000606	0.875
13096	38142	52.127329000606	0.25
13096	38986	52.840330020832	0.125
13096	39040	52.898159682341	0.625
13096	39230	53.042136456198	0.875
13096	39528	53.242961998283	0.75
13096	39869	53.511773957162	0.5
13096	39982	53.604339156784	0
13096	40137	53.721752334263	0.75
13096	40203	53.802870185048	0
13096	40350	53.910786089093	0.75
13096	40383	53.950812281031	0.25
13096	41674	54.859452272034	-0.125
13096	41957	55.059452272034	0.875
13096	42363	55.366917619146	0.75
13096	43255	56.138656083602	0.5
13096	43578	56.448155452765	0.625
13096	43841	56.667925211938	-0.5
13096	44416	57.152207944253	0.125
13096	45713	58.152307944353	-0.25
13096	46956	59.13521742067	0.625
13096	47103	59.252307944353	-0.25
13096	47347	59.438182442657	0.75
13096	47636	59.646823040655	0.875
13096	47874	59.854275045021	0.375
13096	47884	59.857501890922	0.375
13096	48592	60.457601891022	0.125
13096	49833	61.569433483955	-0.5
13096	49979	61.669533484055	0.875
13096	51099	62.569533484055	0
13096	51924	63.270372904199	0.125
13096	52325	63.669466292217	0.375
13096	52753	64.078955385716	0.625
13096	53067	64.316260046672	0.625
13096	53121	64.382698000333	-0.25
13096	53883	65.089383826193	0.125
13096	55203	66.197992487943	0.125
13096	55599	66.497992487943	0.75
13096	55904	66.700378234528	0.875
13096	55938	66.715869344798	0.875
13096	56294	67.047930148389	0.75
13096	56464	67.150501495409	0.875
13096	58046	68.407687548148	0.75
13096	58223	68.525951421099	0.25
13096	58371	68.634351996487	0.875
13096	58597	68.834351996487	0.875
13096	59837	69.735079765695	0.5
13096	60575	70.335079765695	0.375
13096	61323	70.943951711384	0.25
13096	62126	71.653616223313	0.25
13096	62455	71.967008513007	0.25
13096	62560	72.062851262894	0.625
13096	63111	72.525246904189	-0.375
13096	63644	72.93477883705	0.375
13096	64408	73.53477883705	0.375
13096	64653	73.757418173106	0.625
13096	64936	74.035684903555	0.5
13096	65523	74.538675021041	0.5
13096	65756	74.745959492016	0.75
13096	66635	75.345959492016	0.375
13096	68453	76.947829251303	-1
13096	68458	76.963443896772	-1
13096	68488	76.965218086481	1
13096	68853	77.265218086481	0.75
13096	69624	77.973305809726	0.25
13096	70100	78.378300792428	0.625
13096	70445	78.697615232899	0.75
13096	71368	79.410396764328	0.125
13096	71637	79.611661543511	0.875
13096	72000	79.911761543611	0.625
13096	72360	80.211761543611	0.75
13096	72994	80.716839307306	0.5
13096	73054	80.746582163297	0.5
13096	73815	81.352676974629	0.25
13096	74124	81.652676974629	0.75
13096	75011	82.458762244764	0
13096	75015	82.459265527967	0.375
13096	75536	82.861670346253	0.5
13096	75538	82.862099204887	0.5
13096	76348	83.562199204987	0.125
13096	76844	83.962199204987	0.625
13096	77238	84.36421004084	0.625
13096	77476	84.566990961894	0.875
13096	77778	84.820014483909	0.875
13096	77992	85.024062573806	0.875
13096	78281	85.245807688178	0
13096	78297	85.245907688278	1
13096	79253	85.945907688278	0.25
13096	79748	86.3619558626	0.5
13096	80244	86.762272385538	0.625
13096	80391	86.867039227701	0.875
13096	80642	87.067039227701	0.875
13096	81342	87.773854187853	0.25
13096	81614	88.082923864766	0.75
13096	82311	88.787360699506	0.25
13096	82655	89.091126112983	0.75
13096	83096	89.491673780904	0.625
13096	83593	89.895628559774	0.875
13096	84191	90.402074695439	0.5
13096	84293	90.501242420934	-0.25
13096	84884	91.00343673994	0.25
13096	84899	91.007694758372	0.25
13096	85338	91.314133220363	0.5
13096	86129	92.014133220363	0.25
13096	86693	92.514233220463	0.375
13096	87617	93.314233220463	0
13096	87777	93.420740182803	1
13096	87990	93.62513588689	0.875
13096	87993	93.625666944471	0.875
13096	88057	93.709288967014	0.25
13096	88493	94.083459020573	0.875
13096	88544	94.11446696729	0.625
13096	88600	94.131730439558	0.5
13096	88604	94.13200302405	0.5
13096	88619	94.13210302415	1
13096	88788	94.33210302415	0.875
13096	88793	94.333209772093	0.875
13096	89095	94.634982450866	0.75
13096	89101	94.638497528312	0.75
13096	90243	95.638597528412	-0.5
13096	91246	96.446789555418	0.375
13096	91773	96.946789555418	0.5
13096	91917	97.050007694222	0.875
13096	93257	98.250007694222	-0.375
13096	93529	98.451358804419	0.875
13096	94375	99.155572129171	0
13096	94696	99.455572129171	0.75
13096	95425	100.065392785878	0.375
13096	95431	100.066493655959	0.375
13096	96216	100.746246188004	-0.125
13096	96324	100.835391503177	-0.5
13096	96730	101.135491503277	0.625
13096	97354	101.643371253374	0.5
13096	97624	101.951033632398	0.625
13096	98123	102.481319395915	0.875
13096	98456	102.770952995654	0.75
13096	98558	102.871052995754	0.875
13096	99490	103.571052995754	0.25
13096	99872	103.891174147362	0.75
13096	100310	104.212050281012	0.75
13096	101007	104.814330533329	0
13096	101636	105.416397794168	0.375
13096	101958	105.729855557793	0.75
13096	102375	106.102272074815	0.5
13096	102673	106.410301425724	0.75
13096	102914	106.636715142248	-0.125
13096	103398	107.046624564545	0.625
13096	103917	107.458289332368	0.625
13096	104542	107.863598425499	0.5
13096	105725	108.863598425499	-0.375
13096	106535	109.568678143216	-0.125
13096	107628	110.368678143216	0
13096	108136	110.847494951953	0.75
13096	108385	111.077240042185	0.25
13096	108548	111.2650972605	0.625
13096	109033	111.669332366957	0.5
13096	110009	112.477692136572	0.125
13096	110111	112.551676860111	0.75
13096	110293	112.711675254221	0.625
13096	111057	113.325490557516	0.375
13096	111469	113.657086916071	-0.25
13096	111478	113.657650771473	-0.25
13096	112382	114.360581980197	0
13096	113797	115.460581980197	-0.25
13096	114296	115.826119848446	0.5
13096	114420	115.916898408411	0.875
13096	114454	115.962526375244	0.375
13096	114844	116.271907487146	0.625
13096	114923	116.323955245292	0.625
13096	114999	116.39116000091	0.375
13096	115724	116.994523231571	0.25
13096	116730	117.994523231571	-0.375
13096	117530	118.698710999341	0
13096	118498	119.586471284966	0.625
13096	118765	119.786571285066	0.75
13096	119419	120.386571285066	0.375
13096	119860	120.79552062487	0.5
13096	119932	120.825947630964	0.625
13096	120268	121.096511765043	0.625
13096	120607	121.398467764444	0.75
13096	120745	121.534249724671	0.25
13096	121317	122.034349724771	0.375
13096	122120	122.734349724771	0.25
13096	122167	122.747174840163	0.625
13096	122791	123.254416207911	0.375
13096	123991	124.254416207911	-0.5
13096	124352	124.56188461844	0.625
13096	125075	125.16188461844	0.375
13096	125449	125.46425346206	0.75
13096	125915	125.867899085167	0.625
13096	126206	126.170256874759	0.625
13096	126713	126.670256874759	0.375
13096	127210	127.076038724751	0.625
13096	128168	127.884729935665	0
13096	129221	128.698698882289	0.25
13096	131041	130.198698882289	-0.875
13096	131515	130.674911065815	-0.125
13096	131733	130.880652548087	0.875
13096	133481	132.186686723044	-0.75
13096	134030	132.686686723044	0.5
13096	135223	133.990715785368	-0.75
13096	135368	134.116120716226	-0.5
13096	135475	134.198938932643	0.875
13096	136048	134.702769911832	0.5
13096	136122	134.73416021064	0.125
13096	136451	134.943935160323	0.75
13096	137677	135.846881015988	-0.125
13096	138116	136.253879231668	0.625
13096	138580	136.662106315981	0.625
13097	29	20.0000000001	0
13097	281	20.3000000001	0.3
13097	620	20.8001000023	0.4
13097	868	21.102947501791	0.3
13097	1580	21.803391335109	0.7
13097	1951	22.103391335109	0.3
13097	2170	22.309983642002	0.4
13097	2453	22.521937469022	0.5
13097	2996	23.023077406344	0.5
13097	3496	23.523077406344	0.5
13097	4334	24.132566900826	0.6
13097	4410	24.148948062417	0.6
13097	4561	24.24921034277	0.1
13097	6199	25.44921034277	1.2
13097	7300	26.351687983302	0.9
13097	7788	26.755880282624	0.7
13097	8061	26.958270336475	0.6
13097	8076	26.959121749573	0.2
13097	8327	27.161307304738	0.2
13097	8374	27.165608838293	0.2
13097	9157	27.766453463305	0.6
13097	9350	27.966453463305	0.2
13097	9549	28.158509038603	0.2
13097	10425	28.86518013911	0.7
13097	10678	29.06518013911	0.2
13097	12149	30.369005469126	1.3
13097	12337	30.569005469126	0.2
13097	12804	30.976753951027	0.4
13097	13105	31.283560875926	0.3
13097	13256	31.407044529775	0.8
13097	14038	32.113374760043	0.7
13097	14988	32.913374760043	0.8
13097	15518	33.323098634967	0.4
13097	15904	33.623098634967	0.3
13097	16625	34.225478452901	0.6
13097	16868	34.425578453001	0.2
13097	17263	34.825578453001	0.4
13097	17789	35.23103657508	0.4
13097	18362	35.736933255057	0.5
13097	18737	36.036933255057	0.3
13097	20398	37.453946058243	1.3
13097	20901	37.853946058243	0.4
13097	21236	38.154885062098	0.3
13097	21747	38.559470511795	0.4
13097	22069	38.866854617941	0.3
13097	22340	39.072635735401	0.2
13097	22686	39.372635735401	0.3
13097	23323	39.877410694658	0.5
13097	23751	40.158574507456	0.1
13097	23903	40.285714024269	0.4
13097	24391	40.695246341227	0.4
13097	24671	40.961417260434	0.4
13097	24769	41.102477846449	0.4
13097	25163	41.41056039392	0.3
13097	25559	41.71056039392	0.3
13097	26160	42.204536031221	0.3
13097	26178	42.206793995848	0
13097	26719	42.706793995848	0.5
13097	27626	43.508429373751	0.8
13097	27761	43.61567856375	0.1
13097	28001	43.81567856375	0.2
13097	28601	44.324552038459	0.5
13097	29075	44.724552038459	0.4
13097	30016	45.429077606576	0.7
13097	30556	45.832109673118	0.4
13097	30928	46.136435835639	0.3
13097	31259	46.430176417871	0.8
13097	31548	46.745612337652	0.6
13097	32042	47.232866498836	0.8
13097	32090	47.254117858873	0.5
13097	32297	47.438263775839	0.7
13097	32529	47.63828126136	0.4
13097	32673	47.741290996663	0.1
13097	33022	48.041290996663	0.3
13097	33426	48.352446125029	0.3
13097	33728	48.558304019651	0.2
13097	34487	49.165036027549	0.6
13097	34715	49.362103737581	0.7
13097	35193	49.670600027776	0.3
13097	36331	50.670600027776	1
13097	36579	50.872273721381	0.2
13097	37140	51.319402074713	0.8
13097	37280	51.427329000606	0.1
13097	38142	52.127329000606	0.7
13097	38986	52.840330020832	0.7
13097	39040	52.898159682341	0.4
13097	39230	53.042136456198	0.2
13097	39528	53.242961998283	0.2
13097	39869	53.511773957162	0.5
13097	39982	53.604339156784	0.7
13097	40137	53.721752334263	0.2
13097	40203	53.802870185048	0.8
13097	40350	53.910786089093	0.3
13097	40383	53.950812281031	0.7
13097	41674	54.859452272034	0.9
13097	41957	55.059452272034	0.2
13097	42363	55.366917619146	0.3
13097	43255	56.138656083602	0.4
13097	43578	56.448155452765	0.3
13097	43841	56.667925211938	1.3
13097	44416	57.152207944253	0.7
13097	45713	58.152307944353	1
13097	46956	59.13521742067	0.4
13097	47103	59.252307944353	1.1
13097	47347	59.438182442657	0.3
13097	47636	59.646823040655	0.2
13097	47874	59.854275045021	0.6
13097	47884	59.857501890922	0.6
13097	48592	60.457601891022	0.6
13097	49833	61.569433483955	1.1
13097	49979	61.669533484055	0.1
13097	51099	62.569533484055	0.9
13097	51924	63.270372904199	0.7
13097	52325	63.669466292217	0.6
13097	52753	64.078955385716	0.4
13097	53067	64.316260046672	0.4
13097	53121	64.382698000333	1.1
13097	53883	65.089383826193	0.7
13097	55203	66.197992487943	0.7
13097	55599	66.497992487943	0.3
13097	55904	66.700378234528	0.2
13097	55938	66.715869344798	0.2
13097	56294	67.047930148389	0.3
13097	56464	67.150501495409	0.1
13097	58046	68.407687548148	0.2
13097	58223	68.525951421099	0.7
13097	58371	68.634351996487	0.1
13097	58597	68.834351996487	0.2
13097	59837	69.735079765695	0.4
13097	60575	70.335079765695	0.6
13097	61323	70.943951711384	0.6
13097	62126	71.653616223313	0.7
13097	62455	71.967008513007	0.7
13097	62560	72.062851262894	0.4
13097	63111	72.525246904189	1.1
13097	63644	72.93477883705	0.4
13097	64408	73.53477883705	0.6
13097	64653	73.757418173106	0.4
13097	64936	74.035684903555	0.5
13097	65523	74.538675021041	0.5
13097	65756	74.745959492016	0.2
13097	66635	75.345959492016	0.6
13097	68453	76.947829251303	1.6
13097	68458	76.963443896772	1.6
13097	68488	76.965218086481	0
13097	68853	77.265218086481	0.3
13097	69624	77.973305809726	0.7
13097	70100	78.378300792428	0.4
13097	70445	78.697615232899	0.3
13097	71368	79.410396764328	0.7
13097	71637	79.611661543511	0.2
13097	72000	79.911761543611	0.3
13097	72360	80.211761543611	0.3