version 2
run Stability-101-20130528-00:57:04-21385
attr configname Stability
attr datetime 20130528-00:57:04
attr experiment Stability
attr inifile omnetpp.ini
attr iterationvars $0=1e-4
attr iterationvars2 "$0=1e-4, $repetition=1"
attr measurement $0=1e-4
attr network Network
attr processid 21385
attr repetition 1
attr replication #1
attr resultdir results
attr runnumber 101
attr seedset 101

vector 9893  Network.churner  inGoingSizeSig:vector  ETV
vector 9815  Network.dyn_peer[6]  lookupHopsSig:vector  ETV
vector 9816  Network.dyn_peer[6]  lookupStabilitySig:vector  ETV
vector 9817  Network.dyn_peer[6]  lookupTimeSig:vector  ETV
vector 9851  Network.dyn_peer[18]  lookupHopsSig:vector  ETV
vector 9852  Network.dyn_peer[18]  lookupStabilitySig:vector  ETV
vector 9853  Network.dyn_peer[18]  lookupTimeSig:vector  ETV
vector 9863  Network.dyn_peer[22]  lookupHopsSig:vector  ETV
vector 9864  Network.dyn_peer[22]  lookupStabilitySig:vector  ETV
vector 9865  Network.dyn_peer[22]  lookupTimeSig:vector  ETV
vector 9881  Network.dyn_peer[28]  lookupHopsSig:vector  ETV
vector 9882  Network.dyn_peer[28]  lookupStabilitySig:vector  ETV
vector 9883  Network.dyn_peer[28]  lookupTimeSig:vector  ETV
vector 9887  Network.dyn_peer[30]  lookupHopsSig:vector  ETV
vector 9888  Network.dyn_peer[30]  lookupStabilitySig:vector  ETV
vector 9889  Network.dyn_peer[30]  lookupTimeSig:vector  ETV
vector 9797  Network.dyn_peer[0]  lookupHopsSig:vector  ETV
vector 9798  Network.dyn_peer[0]  lookupStabilitySig:vector  ETV
vector 9799  Network.dyn_peer[0]  lookupTimeSig:vector  ETV
vector 9803  Network.dyn_peer[2]  lookupHopsSig:vector  ETV
vector 9804  Network.dyn_peer[2]  lookupStabilitySig:vector  ETV
vector 9805  Network.dyn_peer[2]  lookupTimeSig:vector  ETV
vector 9830  Network.dyn_peer[11]  lookupHopsSig:vector  ETV
vector 9831  Network.dyn_peer[11]  lookupStabilitySig:vector  ETV
vector 9832  Network.dyn_peer[11]  lookupTimeSig:vector  ETV
vector 9833  Network.dyn_peer[12]  lookupHopsSig:vector  ETV
vector 9834  Network.dyn_peer[12]  lookupStabilitySig:vector  ETV
vector 9835  Network.dyn_peer[12]  lookupTimeSig:vector  ETV
vector 9800  Network.dyn_peer[1]  lookupHopsSig:vector  ETV
vector 9801  Network.dyn_peer[1]  lookupStabilitySig:vector  ETV
vector 9802  Network.dyn_peer[1]  lookupTimeSig:vector  ETV
vector 9806  Network.dyn_peer[3]  lookupHopsSig:vector  ETV
vector 9807  Network.dyn_peer[3]  lookupStabilitySig:vector  ETV
vector 9808  Network.dyn_peer[3]  lookupTimeSig:vector  ETV
vector 9809  Network.dyn_peer[4]  lookupHopsSig:vector  ETV
vector 9810  Network.dyn_peer[4]  lookupStabilitySig:vector  ETV
vector 9811  Network.dyn_peer[4]  lookupTimeSig:vector  ETV
vector 9812  Network.dyn_peer[5]  lookupHopsSig:vector  ETV
vector 9813  Network.dyn_peer[5]  lookupStabilitySig:vector  ETV
vector 9814  Network.dyn_peer[5]  lookupTimeSig:vector  ETV
vector 9818  Network.dyn_peer[7]  lookupHopsSig:vector  ETV
vector 9819  Network.dyn_peer[7]  lookupStabilitySig:vector  ETV
vector 9820  Network.dyn_peer[7]  lookupTimeSig:vector  ETV
vector 9836  Network.dyn_peer[13]  lookupHopsSig:vector  ETV
vector 9837  Network.dyn_peer[13]  lookupStabilitySig:vector  ETV
vector 9838  Network.dyn_peer[13]  lookupTimeSig:vector  ETV
vector 9845  Network.dyn_peer[16]  lookupHopsSig:vector  ETV
vector 9846  Network.dyn_peer[16]  lookupStabilitySig:vector  ETV
vector 9847  Network.dyn_peer[16]  lookupTimeSig:vector  ETV
vector 9854  Network.dyn_peer[19]  lookupHopsSig:vector  ETV
vector 9855  Network.dyn_peer[19]  lookupStabilitySig:vector  ETV
vector 9856  Network.dyn_peer[19]  lookupTimeSig:vector  ETV
vector 9860  Network.dyn_peer[21]  lookupHopsSig:vector  ETV
vector 9861  Network.dyn_peer[21]  lookupStabilitySig:vector  ETV
vector 9862  Network.dyn_peer[21]  lookupTimeSig:vector  ETV
vector 9866  Network.dyn_peer[23]  lookupHopsSig:vector  ETV
vector 9867  Network.dyn_peer[23]  lookupStabilitySig:vector  ETV
vector 9868  Network.dyn_peer[23]  lookupTimeSig:vector  ETV
vector 9884  Network.dyn_peer[29]  lookupHopsSig:vector  ETV
vector 9885  Network.dyn_peer[29]  lookupStabilitySig:vector  ETV
vector 9886  Network.dyn_peer[29]  lookupTimeSig:vector  ETV
vector 9821  Network.dyn_peer[8]  lookupHopsSig:vector  ETV
vector 9822  Network.dyn_peer[8]  lookupStabilitySig:vector  ETV
vector 9823  Network.dyn_peer[8]  lookupTimeSig:vector  ETV
vector 9824  Network.dyn_peer[9]  lookupHopsSig:vector  ETV
vector 9825  Network.dyn_peer[9]  lookupStabilitySig:vector  ETV
vector 9826  Network.dyn_peer[9]  lookupTimeSig:vector  ETV
vector 9839  Network.dyn_peer[14]  lookupHopsSig:vector  ETV
vector 9840  Network.dyn_peer[14]  lookupStabilitySig:vector  ETV
vector 9841  Network.dyn_peer[14]  lookupTimeSig:vector  ETV
vector 9842  Network.dyn_peer[15]  lookupHopsSig:vector  ETV
vector 9843  Network.dyn_peer[15]  lookupStabilitySig:vector  ETV
vector 9844  Network.dyn_peer[15]  lookupTimeSig:vector  ETV
vector 9848  Network.dyn_peer[17]  lookupHopsSig:vector  ETV
vector 9849  Network.dyn_peer[17]  lookupStabilitySig:vector  ETV
vector 9850  Network.dyn_peer[17]  lookupTimeSig:vector  ETV
vector 9857  Network.dyn_peer[20]  lookupHopsSig:vector  ETV
vector 9858  Network.dyn_peer[20]  lookupStabilitySig:vector  ETV
vector 9859  Network.dyn_peer[20]  lookupTimeSig:vector  ETV
vector 9872  Network.dyn_peer[25]  lookupHopsSig:vector  ETV
vector 9873  Network.dyn_peer[25]  lookupStabilitySig:vector  ETV
vector 9874  Network.dyn_peer[25]  lookupTimeSig:vector  ETV
vector 9827  Network.dyn_peer[10]  lookupHopsSig:vector  ETV
vector 9828  Network.dyn_peer[10]  lookupStabilitySig:vector  ETV
vector 9829  Network.dyn_peer[10]  lookupTimeSig:vector  ETV
vector 9869  Network.dyn_peer[24]  lookupHopsSig:vector  ETV
vector 9870  Network.dyn_peer[24]  lookupStabilitySig:vector  ETV
vector 9871  Network.dyn_peer[24]  lookupTimeSig:vector  ETV
vector 9890  Network.dyn_peer[31]  lookupHopsSig:vector  ETV
vector 9891  Network.dyn_peer[31]  lookupStabilitySig:vector  ETV
vector 9892  Network.dyn_peer[31]  lookupTimeSig:vector  ETV
vector 9875  Network.dyn_peer[26]  lookupHopsSig:vector  ETV
vector 9876  Network.dyn_peer[26]  lookupStabilitySig:vector  ETV
vector 9877  Network.dyn_peer[26]  lookupTimeSig:vector  ETV
vector 9878  Network.dyn_peer[27]  lookupHopsSig:vector  ETV
vector 9879  Network.dyn_peer[27]  lookupStabilitySig:vector  ETV
vector 9880  Network.dyn_peer[27]  lookupTimeSig:vector  ETV
9797	144	20.1000001	1
9797	401	20.5000001	3
9797	1463	21.620899554328	10
9797	1708	21.901838526081	9
9797	1784	21.924784867037	2
9797	2892	22.831322208213	9
9797	3358	23.231322208213	3
9797	3705	23.538878212998	2
9797	4213	24.017032924977	2
9797	4347	24.123808739496	6
9797	4607	24.332547346891	2
9797	5029	24.832547346891	4
9797	5571	25.335886824538	4
9797	5801	25.552089869019	2
9797	6126	25.841209831332	4
9797	6258	25.954186350274	3
9797	7162	26.659146296524	10
9797	7400	26.859146296524	1
9797	7604	27.064393654765	1
9797	7976	27.368120662156	3
9797	9170	28.368120662156	11
9797	10169	29.170249884499	8
9797	10729	29.677469941966	4
9797	10825	29.756752548471	7
9797	11026	29.882214931553	1
9797	11045	29.892491337662	1
9797	11650	30.394735188248	5
9797	12092	30.796184443292	3
9797	12787	31.403771876786	5
9797	13217	31.820064545341	3
9797	13339	31.980283392925	7
9797	13507	32.089191832529	0
9797	13524	32.095529701677	3
9797	14153	32.696640198905	6
9797	14721	33.196640198905	4
9797	15218	33.603220571001	3
9797	15265	33.617366766999	3
9797	16029	34.320726286001	7
9797	16544	34.720726286001	3
9797	17018	35.095210089034	2
9797	17527	35.498058609082	4
9797	17562	35.517365324244	3
9797	18029	35.921989154335	4
9797	18725	36.521989154335	5
9797	19163	36.923424885961	3
9797	19487	37.232850841256	2
9797	19753	37.440988008692	1
9797	19850	37.54327049972	1
9797	20134	37.758803055853	1
9797	20244	37.849629353773	4
9797	21239	38.551151234175	9
9797	22026	39.251151234175	6
9797	22400	39.558903184115	5
9797	22655	39.7626092539	2
9797	23187	40.167269188281	3
9797	23910	40.676083376889	5
9797	24299	40.976083376889	2
9797	24764	41.378503843095	3
9797	25112	41.678603943095	3
9797	26348	42.778603943095	11
9797	26783	43.187483536489	3
9797	26830	43.19684239636	0
9797	27228	43.49684239636	2
9797	27523	43.703000917306	2
9797	27941	44.003117618896	4
9797	28363	44.403117618896	3
9797	28709	44.711601278076	2
9797	28835	44.815410418314	3
9797	28841	44.815510418314	2
9797	29051	45.012921429669	2
9797	29312	45.218470990207	1
9797	29645	45.518035528421	7
9797	29770	45.620595332539	3
9797	29778	45.625120538195	7
9797	30086	45.925220638195	3
9797	30982	46.825220638195	9
9797	31335	47.130446070023	2
9797	31573	47.340830546007	1
9797	31597	47.417547918959	2
9797	31819	47.548264686117	1
9797	32919	48.449771102147	9
9797	33751	49.249771102147	7
9797	34088	49.550437037834	2
9797	34507	49.855111456487	3
9797	34914	50.155111456487	2
9797	35288	50.455720541903	3
9797	35562	50.755720541903	2
9797	35787	50.956241061456	1
9797	36080	51.157529887795	2
9797	37373	52.257529887795	11
9797	37775	52.594825255069	1
9797	37826	52.664091766146	3
9797	39174	53.672410453945	11
9797	40114	54.372410453945	7
9797	40138	54.387255659532	2
9797	40469	54.695274409207	2
9797	41070	55.195374509207	5
9797	41721	55.773726033978	3
9797	42114	56.095374509207	9
9797	42349	56.297067198989	2
9797	42743	56.601653870472	2
9797	42874	56.702773698993	1
9797	43040	56.902773698993	1
9797	43355	57.202873798993	3
9797	43591	57.402873798993	1
9797	43802	57.603465111788	1
9797	44471	58.219882355703	5
9797	44904	58.519982455703	3
9797	45420	58.919982455703	3
9797	45927	59.280566844102	2
9797	46124	59.424940616436	5
9797	46432	59.684625362674	3
9797	47181	60.286241416186	7
9797	47670	60.686241416186	3
9797	48212	61.086159790944	2
9797	48223	61.089544723709	3
9797	48692	61.493600352742	4
9797	48703	61.498185725056	2
9797	49210	61.898285825056	4
9797	49523	62.198285825056	2
9797	49949	62.598467883722	3
9797	50373	63.006799359382	3
9797	50578	63.209825079999	1
9797	50592	63.244424550417	2
9797	51916	64.453666306114	13
9797	52919	65.453666306114	9
9797	53156	65.659948795783	1
9797	53771	66.170182109063	4
9797	54056	66.419601144082	3
9797	54378	66.690531698648	4
9797	54593	66.846935187132	2
9797	54686	66.921448458839	4
9797	54854	67.027586356306	0
9797	55203	67.253502282519	4
9797	55356	67.395178080514	6
9797	55874	67.900203830255	5
9797	56307	68.300203830255	4
9797	56555	68.509670097359	1
9797	56738	68.712199423081	1
9797	57025	69.016100887788	3
9797	57541	69.489900884865	1
9797	57897	69.797451122404	2
9797	59936	71.501949893322	4
9797	61074	72.501949893322	9
9797	61668	73.007429379014	4
9797	61893	73.208399173303	4
9797	62221	73.51246202886	3
9797	63443	74.503041790289	6
9797	63462	74.51246202886	9
9797	63725	74.713682217758	2
9797	64163	75.113682217758	3
9797	64387	75.317241647708	1
9797	64634	75.519779003727	1
9797	64801	75.625914823597	1
9797	65672	76.225914823597	5
9797	66190	76.633443613876	3
9797	66480	76.842130758921	1
9797	66598	76.932736045643	1
9797	67129	77.332836145643	4
9797	67761	77.832836145643	4
9797	68483	78.437665661711	6
9797	68873	78.741887657852	2
9797	69057	78.88453441497	3
9797	69173	78.982346944159	8
9797	69306	79.093958072369	1
9797	69471	79.203491980877	1
9797	70342	79.903491980877	6
9797	71071	80.61129680103	6
9797	71575	81.012612852636	4
9797	71937	81.314940899203	2
9797	72195	81.500846461711	5
9797	72533	81.810707488766	2
9797	72563	81.820780869244	5
9797	72773	81.930016770689	2
9797	75155	83.703889043462	12
9797	75279	83.810388201423	0
9797	76023	84.416193021674	5
9797	76148	84.533420239265	7
9797	76251	84.619365945293	1
9797	76269	84.635858125983	1
9797	77047	85.240406896837	6
9797	78294	86.361511033387	7
9797	79219	87.161511033387	7
9797	80522	88.265374427505	11
9797	80648	88.373301934861	1
9797	81527	89.173301934861	7
9797	82095	89.674071132308	5
9797	82247	89.775474042139	7
9797	82374	89.882306287731	8
9797	82826	90.182698000233	3
9797	83334	90.582698000233	3
9797	83828	90.994284021523	3
9797	83967	91.117089080064	5
9797	84151	91.289162548445	7
9797	84454	91.597769263611	3
9797	84956	92.097769263611	4
9797	85509	92.528648802413	4
9797	85704	92.709390275839	7
9797	85759	92.736601538521	1
9797	86813	93.539388403889	9
9797	87589	94.139388403889	7
9797	87822	94.348594829308	2
9797	88486	94.9487970463	5
9797	88674	95.11573110243	8
9797	89398	95.725251879329	7
9797	89958	96.195359588188	3
9797	90575	96.795359588188	5
9797	90829	96.981925853982	3
9797	90976	97.104592307407	3
9797	91181	97.282970408685	2
9797	91844	97.789300641837	5
9797	92329	98.189300641837	3
9797	92903	98.694899233414	4
9797	93377	99.100425633416	4
9797	94141	99.900425633416	7
9797	94758	100.50375786006	5
9797	95069	100.72330149562	1
9797	96370	101.929902447772	13
9797	97213	102.629902447772	7
9797	97870	103.134582278453	4
9797	97991	103.226351218731	1
9797	98339	103.532905526405	2
9797	98468	103.633005626405	1
9797	99964	104.933005626405	13
9797	100532	105.351646876583	4
9797	101459	106.171013127035	8
9797	102085	106.676247236864	4
9797	102363	106.880731916463	2
9797	103040	107.377667546463	6
9797	103234	107.557377948994	6
9797	104069	108.164817858009	6
9797	104628	108.664817858009	4
9797	105182	109.070281817609	3
9797	105696	109.470381917609	4
9797	106499	110.070381917609	5
9797	106790	110.278384907934	1
9797	107308	110.684342861537	3
9797	107322	110.688573989535	3
9797	108044	111.192696028305	4
9797	108073	111.194918047345	4
9797	108649	111.600240284294	4
9797	108875	111.805192294194	5
9797	108879	111.805457395511	5
9797	108954	111.901079985186	2
9797	109280	112.202774381586	3
9797	109974	112.811954996278	5
9797	110111	112.917332781224	0
9797	111474	114.117432881224	13
9797	111995	114.617432881224	4
9797	113619	116.136843554086	6
9797	114237	116.757245162387	5
9797	114749	117.157345262387	4
9797	115664	117.855133743505	2
9797	116083	118.255133743505	3
9797	116343	118.460737957269	2
9797	117829	119.760737957269	13
9797	119119	120.768706180803	9
9797	120261	121.768806280803	10
9797	122872	124.068806280803	24
9797	123220	124.371844995431	2
9797	123872	124.978130347697	6
9797	123877	124.985600243221	4
9797	124375	125.3789096315	3
9797	124611	125.597374904659	8
9797	124720	125.684268880966	2
9797	124966	125.897675004659	2
9797	125029	125.907214037576	2
9797	125110	125.990518048862	9
9797	125112	125.990812059701	2
9797	126637	127.290912159701	15
9797	127029	127.590912159701	2
9797	127288	127.791873664354	1
9797	128009	128.421195280785	2
9797	128325	128.624062723526	2
9797	128747	129.024062723526	3
9797	129058	129.326213893084	2
9797	129466	129.734804801053	3
9797	129842	130.038853736968	3
9797	130015	130.215985145325	10
9797	130459	130.546686314783	5
9797	131079	131.151033235946	6
9797	131482	131.551033235946	3
9797	132345	132.253818294754	8
9797	132619	132.463756813872	2
9797	133173	132.863756813872	4
9797	133670	133.271241649486	3
9797	134036	133.578274699164	2
9797	134569	133.985444577001	4
9797	135506	134.78658992207	8
9797	136022	135.18658992207	3
9797	137266	136.37119315152	4
9798	144	20.1000001	0.875
9798	401	20.5000001	0.625
9798	1463	21.620899554328	-0.25
9798	1708	21.901838526081	-0.125
9798	1784	21.924784867037	0.75
9798	2892	22.831322208213	-0.125
9798	3358	23.231322208213	0.625
9798	3705	23.538878212998	0.75
9798	4213	24.017032924977	0.75
9798	4347	24.123808739496	0.25
9798	4607	24.332547346891	0.75
9798	5029	24.832547346891	0.5
9798	5571	25.335886824538	0.5
9798	5801	25.552089869019	0.75
9798	6126	25.841209831332	0.5
9798	6258	25.954186350274	0.625
9798	7162	26.659146296524	-0.25
9798	7400	26.859146296524	0.875
9798	7604	27.064393654765	0.875
9798	7976	27.368120662156	0.625
9798	9170	28.368120662156	-0.375
9798	10169	29.170249884499	0
9798	10729	29.677469941966	0.5
9798	10825	29.756752548471	0.125
9798	11026	29.882214931553	0.875
9798	11045	29.892491337662	0.875
9798	11650	30.394735188248	0.375
9798	12092	30.796184443292	0.625
9798	12787	31.403771876786	0.375
9798	13217	31.820064545341	0.625
9798	13339	31.980283392925	0.125
9798	13507	32.089191832529	1
9798	13524	32.095529701677	0.625
9798	14153	32.696640198905	0.25
9798	14721	33.196640198905	0.5
9798	15218	33.603220571001	0.625
9798	15265	33.617366766999	0.625
9798	16029	34.320726286001	0.125
9798	16544	34.720726286001	0.625
9798	17018	35.095210089034	0.75
9798	17527	35.498058609082	0.5
9798	17562	35.517365324244	0.625
9798	18029	35.921989154335	0.5
9798	18725	36.521989154335	0.375
9798	19163	36.923424885961	0.625
9798	19487	37.232850841256	0.75
9798	19753	37.440988008692	0.875
9798	19850	37.54327049972	0.875
9798	20134	37.758803055853	0.875
9798	20244	37.849629353773	0.5
9798	21239	38.551151234175	-0.125
9798	22026	39.251151234175	0.25
9798	22400	39.558903184115	0.375
9798	22655	39.7626092539	0.75
9798	23187	40.167269188281	0.625
9798	23910	40.676083376889	0.375
9798	24299	40.976083376889	0.75
9798	24764	41.378503843095	0.625
9798	25112	41.678603943095	0.625
9798	26348	42.778603943095	-0.375
9798	26783	43.187483536489	0.625
9798	26830	43.19684239636	1
9798	27228	43.49684239636	0.75
9798	27523	43.703000917306	0.75
9798	27941	44.003117618896	0.5
9798	28363	44.403117618896	0.625
9798	28709	44.711601278076	0.75
9798	28835	44.815410418314	0.625
9798	28841	44.815510418314	0.75
9798	29051	45.012921429669	0.75
9798	29312	45.218470990207	0.875
9798	29645	45.518035528421	0.125
9798	29770	45.620595332539	0.625
9798	29778	45.625120538195	0.125
9798	30086	45.925220638195	0.625
9798	30982	46.825220638195	-0.125
9798	31335	47.130446070023	0.75
9798	31573	47.340830546007	0.875
9798	31597	47.417547918959	0.75
9798	31819	47.548264686117	0.875
9798	32919	48.449771102147	-0.125
9798	33751	49.249771102147	0.125
9798	34088	49.550437037834	0.75
9798	34507	49.855111456487	0.625
9798	34914	50.155111456487	0.75
9798	35288	50.455720541903	0.625
9798	35562	50.755720541903	0.75
9798	35787	50.956241061456	0.875
9798	36080	51.157529887795	0.75
9798	37373	52.257529887795	-0.375
9798	37775	52.594825255069	0.875
9798	37826	52.664091766146	0.625
9798	39174	53.672410453945	-0.375
9798	40114	54.372410453945	0.125
9798	40138	54.387255659532	0.75
9798	40469	54.695274409207	0.75
9798	41070	55.195374509207	0.375
9798	41721	55.773726033978	0.625
9798	42114	56.095374509207	-0.125
9798	42349	56.297067198989	0.75
9798	42743	56.601653870472	0.75
9798	42874	56.702773698993	0.875
9798	43040	56.902773698993	0.875
9798	43355	57.202873798993	0.625
9798	43591	57.402873798993	0.875
9798	43802	57.603465111788	0.875
9798	44471	58.219882355703	0.375
9798	44904	58.519982455703	0.625
9798	45420	58.919982455703	0.625
9798	45927	59.280566844102	0.75
9798	46124	59.424940616436	0.375
9798	46432	59.684625362674	0.625
9798	47181	60.286241416186	0.125
9798	47670	60.686241416186	0.625
9798	48212	61.086159790944	0.75
9798	48223	61.089544723709	0.625
9798	48692	61.493600352742	0.5
9798	48703	61.498185725056	0.75
9798	49210	61.898285825056	0.5
9798	49523	62.198285825056	0.75
9798	49949	62.598467883722	0.625
9798	50373	63.006799359382	0.625
9798	50578	63.209825079999	0.875
9798	50592	63.244424550417	0.75
9798	51916	64.453666306114	-0.625
9798	52919	65.453666306114	-0.125
9798	53156	65.659948795783	0.875
9798	53771	66.170182109063	0.5
9798	54056	66.419601144082	0.625
9798	54378	66.690531698648	0.5
9798	54593	66.846935187132	0.75
9798	54686	66.921448458839	0.5
9798	54854	67.027586356306	1
9798	55203	67.253502282519	0.5
9798	55356	67.395178080514	0.25
9798	55874	67.900203830255	0.375
9798	56307	68.300203830255	0.5
9798	56555	68.509670097359	0.875
9798	56738	68.712199423081	0.875
9798	57025	69.016100887788	0.625
9798	57541	69.489900884865	0.875
9798	57897	69.797451122404	0.75
9798	59936	71.501949893322	0.5
9798	61074	72.501949893322	-0.125
9798	61668	73.007429379014	0.5
9798	61893	73.208399173303	0.5
9798	62221	73.51246202886	0.625
9798	63443	74.503041790289	0.25
9798	63462	74.51246202886	-0.125
9798	63725	74.713682217758	0.75
9798	64163	75.113682217758	0.625
9798	64387	75.317241647708	0.875
9798	64634	75.519779003727	0.875
9798	64801	75.625914823597	0.875
9798	65672	76.225914823597	0.375
9798	66190	76.633443613876	0.625
9798	66480	76.842130758921	0.875
9798	66598	76.932736045643	0.875
9798	67129	77.332836145643	0.5
9798	67761	77.832836145643	0.5
9798	68483	78.437665661711	0.25
9798	68873	78.741887657852	0.75
9798	69057	78.88453441497	0.625
9798	69173	78.982346944159	0
9798	69306	79.093958072369	0.875
9798	69471	79.203491980877	0.875
9798	70342	79.903491980877	0.25
9798	71071	80.61129680103	0.25
9798	71575	81.012612852636	0.5
9798	71937	81.314940899203	0.75
9798	72195	81.500846461711	0.375
9798	72533	81.810707488766	0.75
9798	72563	81.820780869244	0.375
9798	72773	81.930016770689	0.75
9798	75155	83.703889043462	-0.5
9798	75279	83.810388201423	1
9798	76023	84.416193021674	0.375
9798	76148	84.533420239265	0.125
9798	76251	84.619365945293	0.875
9798	76269	84.635858125983	0.875
9798	77047	85.240406896837	0.25
9798	78294	86.361511033387	0.125
9798	79219	87.161511033387	0.125
9798	80522	88.265374427505	-0.375
9798	80648	88.373301934861	0.88888888806105
9798	81527	89.173301934861	0.125
9798	82095	89.674071132308	0.375
9798	82247	89.775474042139	0.125
9798	82374	89.882306287731	0
9798	82826	90.182698000233	0.625
9798	83334	90.582698000233	0.625
9798	83828	90.994284021523	0.625
9798	83967	91.117089080064	0.375
9798	84151	91.289162548445	0.125
9798	84454	91.597769263611	0.625
9798	84956	92.097769263611	0.5
9798	85509	92.528648802413	0.5
9798	85704	92.709390275839	0.125
9798	85759	92.736601538521	0.875
9798	86813	93.539388403889	-0.125
9798	87589	94.139388403889	0.125
9798	87822	94.348594829308	0.75
9798	88486	94.9487970463	0.375
9798	88674	95.11573110243	0
9798	89398	95.725251879329	0.125
9798	89958	96.195359588188	0.625
9798	90575	96.795359588188	0.375
9798	90829	96.981925853982	0.625
9798	90976	97.104592307407	0.625
9798	91181	97.282970408685	0.75
9798	91844	97.789300641837	0.375
9798	92329	98.189300641837	0.625
9798	92903	98.694899233414	0.5
9798	93377	99.100425633416	0.5
9798	94141	99.900425633416	0.125
9798	94758	100.50375786006	0.375
9798	95069	100.72330149562	0.875
9798	96370	101.929902447772	-0.625
9798	97213	102.629902447772	0.125
9798	97870	103.134582278453	0.5
9798	97991	103.226351218731	0.875
9798	98339	103.532905526405	0.75
9798	98468	103.633005626405	0.875
9798	99964	104.933005626405	-0.625
9798	100532	105.351646876583	0.5
9798	101459	106.171013127035	0
9798	102085	106.676247236864	0.5
9798	102363	106.880731916463	0.75
9798	103040	107.377667546463	0.25
9798	103234	107.557377948994	0.25
9798	104069	108.164817858009	0.25
9798	104628	108.664817858009	0.5
9798	105182	109.070281817609	0.625
9798	105696	109.470381917609	0.5
9798	106499	110.070381917609	0.375
9798	106790	110.278384907934	0.875
9798	107308	110.684342861537	0.625
9798	107322	110.688573989535	0.625
9798	108044	111.192696028305	0.5
9798	108073	111.194918047345	0.5
9798	108649	111.600240284294	0.5
9798	108875	111.805192294194	0.375
9798	108879	111.805457395511	0.375
9798	108954	111.901079985186	0.75
9798	109280	112.202774381586	0.625
9798	109974	112.811954996278	0.375
9798	110111	112.917332781224	1
9798	111474	114.117432881224	-0.625
9798	111995	114.617432881224	0.5
9798	113619	116.136843554086	0.25
9798	114237	116.757245162387	0.375
9798	114749	117.157345262387	0.5
9798	115664	117.855133743505	0.75
9798	116083	118.255133743505	0.625
9798	116343	118.460737957269	0.75
9798	117829	119.760737957269	-0.625
9798	119119	120.768706180803	-0.125
9798	120261	121.768806280803	-0.25
9798	122872	124.068806280803	-2
9798	123220	124.371844995431	0.75
9798	123872	124.978130347697	0.25
9798	123877	124.985600243221	0.5
9798	124375	125.3789096315	0.625
9798	124611	125.597374904659	0
9798	124720	125.684268880966	0.75
9798	124966	125.897675004659	0.75
9798	125029	125.907214037576	0.75
9798	125110	125.990518048862	-0.125
9798	125112	125.990812059701	0.75
9798	126637	127.290912159701	-0.875
9798	127029	127.590912159701	0.75
9798	127288	127.791873664354	0.875
9798	128009	128.421195280785	0.75
9798	128325	128.624062723526	0.75
9798	128747	129.024062723526	0.625
9798	129058	129.326213893084	0.75
9798	129466	129.734804801053	0.625
9798	129842	130.038853736968	0.625
9798	130015	130.215985145325	-0.25
9798	130459	130.546686314783	0.375
9798	131079	131.151033235946	0.25
9798	131482	131.551033235946	0.625
9798	132345	132.253818294754	0
9798	132619	132.463756813872	0.75
9798	133173	132.863756813872	0.5
9798	133670	133.271241649486	0.625
9798	134036	133.578274699164	0.75
9798	134569	133.985444577001	0.5
9798	135506	134.78658992207	0
9798	136022	135.18658992207	0.625
9798	137266	136.37119315152	0.5
9799	144	20.1000001	0.1
9799	401	20.5000001	0.4
9799	1463	21.620899554328	1.1
9799	1708	21.901838526081	0.9
9799	1784	21.924784867037	0.3
9799	2892	22.831322208213	0.9
9799	3358	23.231322208213	0.4
9799	3705	23.538878212998	0.3
9799	4213	24.017032924977	0.3
9799	4347	24.123808739496	0.6
9799	4607	24.332547346891	0.2
9799	5029	24.832547346891	0.5
9799	5571	25.335886824538	0.5
9799	5801	25.552089869019	0.3
9799	6126	25.841209831332	0.5
9799	6258	25.954186350274	0.4
9799	7162	26.659146296524	0.7
9799	7400	26.859146296524	0.2
9799	7604	27.064393654765	0.2
9799	7976	27.368120662156	0.3
9799	9170	28.368120662156	1
9799	10169	29.170249884499	0.8
9799	10729	29.677469941966	0.5
9799	10825	29.756752548471	0.8
9799	11026	29.882214931553	0.2
9799	11045	29.892491337662	0.2
9799	11650	30.394735188248	0.5
9799	12092	30.796184443292	0.4
9799	12787	31.403771876786	0.6
9799	13217	31.820064545341	0.4
9799	13339	31.980283392925	0.8
9799	13507	32.089191832529	0.1
9799	13524	32.095529701677	0.4
9799	14153	32.696640198905	0.6
9799	14721	33.196640198905	0.5
9799	15218	33.603220571001	0.4
9799	15265	33.617366766999	0.4
9799	16029	34.320726286001	0.7
9799	16544	34.720726286001	0.4
9799	17018	35.095210089034	0.3
9799	17527	35.498058609082	0.4
9799	17562	35.517365324244	0.4
9799	18029	35.921989154335	0.4
9799	18725	36.521989154335	0.6
9799	19163	36.923424885961	0.4
9799	19487	37.232850841256	0.3
9799	19753	37.440988008692	0.2
9799	19850	37.54327049972	0.1
9799	20134	37.758803055853	0.2
9799	20244	37.849629353773	0.4
9799	21239	38.551151234175	0.7
9799	22026	39.251151234175	0.7
9799	22400	39.558903184115	0.6
9799	22655	39.7626092539	0.2
9799	23187	40.167269188281	0.4
9799	23910	40.676083376889	0.5
9799	24299	40.976083376889	0.3
9799	24764	41.378503843095	0.4
9799	25112	41.678603943095	0.3
9799	26348	42.778603943095	1.1
9799	26783	43.187483536489	0.4
9799	26830	43.19684239636	0
9799	27228	43.49684239636	0.3
9799	27523	43.703000917306	0.3
9799	27941	44.003117618896	0.3
9799	28363	44.403117618896	0.4
9799	28709	44.711601278076	0.3
9799	28835	44.815410418314	0.3
9799	28841	44.815510418314	0.3
9799	29051	45.012921429669	0.3
9799	29312	45.218470990207	0.2
9799	29645	45.518035528421	0.7
9799	29770	45.620595332539	0.4
9799	29778	45.625120538195	0.8
9799	30086	45.925220638195	0.3
9799	30982	46.825220638195	0.9
9799	31335	47.130446070023	0.3
9799	31573	47.340830546007	0.2
9799	31597	47.417547918959	0.3
9799	31819	47.548264686117	0.2
9799	32919	48.449771102147	0.9
9799	33751	49.249771102147	0.8
9799	34088	49.550437037834	0.3
9799	34507	49.855111456487	0.3
9799	34914	50.155111456487	0.3
9799	35288	50.455720541903	0.3
9799	35562	50.755720541903	0.3
9799	35787	50.956241061456	0.2
9799	36080	51.157529887795	0.2
9799	37373	52.257529887795	1.1
9799	37775	52.594825255069	0.2
9799	37826	52.664091766146	0.4
9799	39174	53.672410453945	1
9799	40114	54.372410453945	0.7
9799	40138	54.387255659532	0.3
9799	40469	54.695274409207	0.3
9799	41070	55.195374509207	0.5
9799	41721	55.773726033978	0.4
9799	42114	56.095374509207	0.9
9799	42349	56.297067198989	0.2
9799	42743	56.601653870472	0.3
9799	42874	56.702773698993	0.1
9799	43040	56.902773698993	0.2
9799	43355	57.202873798993	0.3
9799	43591	57.402873798993	0.2
9799	43802	57.603465111788	0.2
9799	44471	58.219882355703	0.6
9799	44904	58.519982455703	0.3
9799	45420	58.919982455703	0.4
9799	45927	59.280566844102	0.3
9799	46124	59.424940616436	0.5
9799	46432	59.684625362674	0.4
9799	47181	60.286241416186	0.6
9799	47670	60.686241416186	0.4
9799	48212	61.086159790944	0.3
9799	48223	61.089544723709	0.4
9799	48692	61.493600352742	0.4
9799	48703	61.498185725056	0.2
9799	49210	61.898285825056	0.4
9799	49523	62.198285825056	0.3
9799	49949	62.598467883722	0.4
9799	50373	63.006799359382	0.4
9799	50578	63.209825079999	0.2
9799	50592	63.244424550417	0.3
9799	51916	64.453666306114	1.2
9799	52919	65.453666306114	1
9799	53156	65.659948795783	0.2
9799	53771	66.170182109063	0.5
9799	54056	66.419601144082	0.3
9799	54378	66.690531698648	0.5
9799	54593	66.846935187132	0.3
9799	54686	66.921448458839	0.5
9799	54854	67.027586356306	0.1
9799	55203	67.253502282519	0.4
9799	55356	67.395178080514	0.7
9799	55874	67.900203830255	0.5
9799	56307	68.300203830255	0.4
9799	56555	68.509670097359	0.2
9799	56738	68.712199423081	0.2
9799	57025	69.016100887788	0.3
9799	57541	69.489900884865	0.1
9799	57897	69.797451122404	0.3
9799	59936	71.501949893322	0.4
9799	61074	72.501949893322	1
9799	61668	73.007429379014	0.5
9799	61893	73.208399173303	0.5
9799	62221	73.51246202886	0.3
9799	63443	74.503041790289	0.6
9799	63462	74.51246202886	1
9799	63725	74.713682217758	0.2
9799	64163	75.113682217758	0.4
9799	64387	75.317241647708	0.2
9799	64634	75.519779003727	0.2
9799	64801	75.625914823597	0.1
9799	65672	76.225914823597	0.6
9799	66190	76.633443613876	0.4
9799	66480	76.842130758921	0.2
9799	66598	76.932736045643	0.2
9799	67129	77.332836145643	0.4
9799	67761	77.832836145643	0.5
9799	68483	78.437665661711	0.6
9799	68873	78.741887657852	0.3
9799	69057	78.88453441497	0.3
9799	69173	78.982346944159	0.9
9799	69306	79.093958072369	0.2
9799	69471	79.203491980877	0.1
9799	70342	79.903491980877	0.7
9799	71071	80.61129680103	0.7
9799	71575	81.012612852636	0.4
9799	71937	81.314940899203	0.3
9799	72195	81.500846461711	0.6
9799	72533	81.810707488766	0.3
9799	72563	81.820780869244	0.5
9799	72773	81.930016770689	0.1
9799	75155	83.703889043462	1
9799	75279	83.810388201423	0.1
9799	76023	84.416193021674	0.6
9799	76148	84.533420239265	0.7