file 1013520 1369933138                                         
version 2
run Stability-88-20130528-00:56:05-21385
attr configname Stability
attr datetime 20130528-00:56:05
attr experiment Stability
attr inifile omnetpp.ini
attr iterationvars $0=1e-2
attr iterationvars2 "$0=1e-2, $repetition=8"
attr measurement $0=1e-2
attr network Network
attr processid 21385
attr repetition 8
attr replication #8
attr resultdir results
attr runnumber 88
attr seedset 88
vector 8632  Network.churner  inGoingSizeSig:vector  ETV
8632	889492 124028 21 136644 20 136.78650731264 4097 0 31 125767 3882357
vector 8566  Network.dyn_peer[10]  lookupHopsSig:vector  ETV
8566	292190 8264 58 135135 20.00011 134.338075294916 282 0 17 1187 7753
vector 8567  Network.dyn_peer[10]  lookupStabilitySig:vector  ETV
8567	300454 9203 58 135135 20.00011 134.338075294916 282 -1.125 1 133.68055555224 106.44926697163
vector 8568  Network.dyn_peer[10]  lookupTimeSig:vector  ETV
8568	309657 8797 58 135135 20.00011 134.338075294916 282 0 1.8 131.4 83.36
vector 8584  Network.dyn_peer[16]  lookupHopsSig:vector  ETV
8584	456887 9019 80 135613 20.00017 134.802573328255 307 0 22 1300 8646
vector 8585  Network.dyn_peer[16]  lookupStabilitySig:vector  ETV
8585	465906 10008 80 135613 20.00017 134.802573328255 307 -1.75 1 144.625 117.078125
vector 8586  Network.dyn_peer[16]  lookupTimeSig:vector  ETV
8586	475914 9583 80 135613 20.00017 134.802573328255 307 0 2.1 144.5 92.85
vector 8587  Network.dyn_peer[17]  lookupHopsSig:vector  ETV
8587	485497 8543 87 136439 20.00018 135.836372346296 290 0 22 1282 8618
vector 8588  Network.dyn_peer[17]  lookupStabilitySig:vector  ETV
8588	494040 9482 87 136439 20.00018 135.836372346296 290 -1.75 1 129.75 104.15625
vector 8589  Network.dyn_peer[17]  lookupTimeSig:vector  ETV
8589	503522 9081 87 136439 20.00018 135.836372346296 290 0 1.7 141.4 92.56
vector 8617  Network.dyn_peer[27]  lookupHopsSig:vector  ETV
8617	757494 8436 121 135746 20.00028 134.966488956916 287 0 26 1228 8534
vector 8618  Network.dyn_peer[27]  lookupStabilitySig:vector  ETV
8618	765930 9380 121 135746 20.00028 134.966488956916 287 -2.25 1 133.56944441795 113.40065584065
vector 8619  Network.dyn_peer[27]  lookupTimeSig:vector  ETV
8619	775310 8972 121 135746 20.00028 134.966488956916 287 0 2.3 137.5 92.07
vector 8629  Network.dyn_peer[31]  lookupHopsSig:vector  ETV
8629	861488 8821 137 136572 20.00032 136.036472346296 300 0 19 1297 8677
vector 8630  Network.dyn_peer[31]  lookupStabilitySig:vector  ETV
8630	870309 9813 137 136572 20.00032 136.036472346296 300 -1.375 1 137.97222220898 111.36188271016
vector 8631  Network.dyn_peer[31]  lookupTimeSig:vector  ETV
8631	880122 9370 137 136572 20.00032 136.036472346296 300 0 1.8 144.8 94.68
vector 8539  Network.dyn_peer[1]  lookupHopsSig:vector  ETV
8539	35579 9193 144 135558 20.10002 134.736436979338 313 0 22 1249 7997
vector 8540  Network.dyn_peer[1]  lookupStabilitySig:vector  ETV
8540	44772 10252 144 135558 20.10002 134.736436979338 313 -1.75 1 156.95833331347 125.8107638624
vector 8541  Network.dyn_peer[1]  lookupTimeSig:vector  ETV
8541	55024 9790 144 135558 20.10002 134.736436979338 313 0 1.9 139.1 85.19
vector 8542  Network.dyn_peer[2]  lookupHopsSig:vector  ETV
8542	64814 8343 149 136055 20.10003 135.338874415784 284 0 16 1193 7459
vector 8543  Network.dyn_peer[2]  lookupStabilitySig:vector  ETV
8543	73157 9331 149 136055 20.10003 135.338874415784 284 -1 1 135.1249999553 102.49517743639
vector 8544  Network.dyn_peer[2]  lookupTimeSig:vector  ETV
8544	82488 8879 149 136055 20.10003 135.338874415784 284 0.1 1.5 132.8 81.26
vector 8554  Network.dyn_peer[6]  lookupHopsSig:vector  ETV
8554	175287 9361 157 136401 20.10007 135.756968745586 318 0 33 1386 9902
vector 8555  Network.dyn_peer[6]  lookupStabilitySig:vector  ETV
8555	184648 10398 157 136401 20.10007 135.756968745586 318 -3.125 1 144.81944443285 126.31500770023
vector 8556  Network.dyn_peer[6]  lookupTimeSig:vector  ETV
8556	195046 9955 157 136401 20.10007 135.756968745586 318 0 2.9 153.4 104.96
vector 8563  Network.dyn_peer[9]  lookupHopsSig:vector  ETV
8563	261897 9529 164 135858 20.1001 135.140438722431 325 0 18 1293 8237
vector 8564  Network.dyn_peer[9]  lookupStabilitySig:vector  ETV
8564	271426 10630 164 135858 20.1001 135.140438722431 325 -1.25 1 163.41666665673 130.5069444312
vector 8565  Network.dyn_peer[9]  lookupTimeSig:vector  ETV
8565	282056 10134 164 135858 20.1001 135.140438722431 325 0 1.6 146.5 91.87
vector 8575  Network.dyn_peer[13]  lookupHopsSig:vector  ETV
8575	374521 8377 172 136466 20.10014 135.854075268631 284 1 23 1310 9144
vector 8576  Network.dyn_peer[13]  lookupStabilitySig:vector  ETV
8576	382898 9338 172 136466 20.10014 135.854075268631 284 -1.875 0.875 120.25 99.375
vector 8577  Network.dyn_peer[13]  lookupTimeSig:vector  ETV
8577	392236 8907 172 136466 20.10014 135.854075268631 284 0.1 2.2 142.8 96.78
vector 8581  Network.dyn_peer[15]  lookupHopsSig:vector  ETV
8581	429549 8591 178 136470 20.10016 135.858258817417 293 0 21 1285 8851
vector 8582  Network.dyn_peer[15]  lookupStabilitySig:vector  ETV
8582	438140 9605 178 136470 20.10016 135.858258817417 293 -1.625 1 132.45833330601 110.12827929597
vector 8583  Network.dyn_peer[15]  lookupTimeSig:vector  ETV
8583	447745 9142 178 136470 20.10016 135.858258817417 293 0 1.9 143.2 95.76
vector 8602  Network.dyn_peer[22]  lookupHopsSig:vector  ETV
8602	620703 10047 188 136642 20.10023 136.78441757142 342 0 23 1309 7491
vector 8603  Network.dyn_peer[22]  lookupStabilitySig:vector  ETV
8603	630750 11168 188 136642 20.10023 136.78441757142 342 -1.875 1 178.41666665673 131.8506944312
vector 8604  Network.dyn_peer[22]  lookupTimeSig:vector  ETV
8604	641918 10698 188 136642 20.10023 136.78441757142 342 0 1.9 148 84.06
vector 8605  Network.dyn_peer[23]  lookupHopsSig:vector  ETV
8605	652616 8351 193 135431 20.10024 134.57203801407 285 0 22 1182 7878
vector 8606  Network.dyn_peer[23]  lookupStabilitySig:vector  ETV
8606	660967 9323 193 135431 20.10024 134.57203801407 285 -1.75 1 137.41666661203 112.74999995033
vector 8607  Network.dyn_peer[23]  lookupTimeSig:vector  ETV
8607	670290 8872 193 135431 20.10024 134.57203801407 285 0 1.8 131.3 82.05
vector 8536  Network.dyn_peer[0]  lookupHopsSig:vector  ETV
8536	6438 9179 208 135939 20.20001 135.239782677603 313 0 27 1308 9060
vector 8537  Network.dyn_peer[0]  lookupStabilitySig:vector  ETV
8537	15617 10202 208 135939 20.20001 135.239782677603 313 -2.375 1 149.55555555224 127.62114197163
vector 8538  Network.dyn_peer[0]  lookupTimeSig:vector  ETV
8538	25819 9760 208 135939 20.20001 135.239782677603 313 0 2.2 144.8 94.92
vector 8545  Network.dyn_peer[3]  lookupHopsSig:vector  ETV
8545	91367 8345 215 135635 20.20004 134.835772525946 284 0 17 1235 7953
vector 8546  Network.dyn_peer[3]  lookupStabilitySig:vector  ETV
8546	99712 9296 215 135635 20.20004 134.835772525946 284 -1.125 1 129.69444441795 99.57253084065
vector 8547  Network.dyn_peer[3]  lookupTimeSig:vector  ETV
8547	109008 8882 215 135635 20.20004 134.835772525946 284 0.1 1.6 136.2 85.42
vector 8548  Network.dyn_peer[4]  lookupHopsSig:vector  ETV
8548	117890 8945 220 136153 20.20005 135.444324305524 304 0 17 1305 8319
vector 8549  Network.dyn_peer[4]  lookupStabilitySig:vector  ETV
8549	126835 9966 220 136153 20.20005 135.444324305524 304 -1.125 1 140.88888888806 107.75887345532
vector 8550  Network.dyn_peer[4]  lookupTimeSig:vector  ETV
8550	136801 9511 220 136153 20.20005 135.444324305524 304 0 1.5 145 91.88
vector 8551  Network.dyn_peer[5]  lookupHopsSig:vector  ETV
8551	146312 9114 225 136033 20.20006 135.31221243645 309 0 20 1240 8166
vector 8552  Network.dyn_peer[5]  lookupStabilitySig:vector  ETV
8552	155426 10164 225 136033 20.20006 135.31221243645 309 -1.5 1 154 126.59375
vector 8553  Network.dyn_peer[5]  lookupTimeSig:vector  ETV
8553	165590 9697 225 136033 20.20006 135.31221243645 309 0 1.9 139.2 87.5
vector 8557  Network.dyn_peer[7]  lookupHopsSig:vector  ETV
8557	205001 8628 231 136003 20.20008 135.268637595473 294 0 22 1209 7993
vector 8558  Network.dyn_peer[7]  lookupStabilitySig:vector  ETV
8558	213629 9581 231 136003 20.20008 135.268637595473 294 -1.75 1 142.88888888806 116.66512345532
vector 8559  Network.dyn_peer[7]  lookupTimeSig:vector  ETV
8559	223210 9166 231 136003 20.20008 135.268637595473 294 0 2.1 136.6 89.42
vector 8560  Network.dyn_peer[8]  lookupHopsSig:vector  ETV
8560	232376 9288 236 135474 20.20009 134.632491099743 315 0 31 1333 9133
vector 8561  Network.dyn_peer[8]  lookupStabilitySig:vector  ETV
8561	241664 10352 236 135474 20.20009 134.632491099743 315 -2.875 1 148.47222220898 124.56558640283
vector 8562  Network.dyn_peer[8]  lookupTimeSig:vector  ETV
8562	252016 9881 236 135474 20.20009 134.632491099743 315 0 2.8 150.1 100.21
vector 8569  Network.dyn_peer[11]  lookupHopsSig:vector  ETV
8569	318454 9026 243 135892 20.20012 135.156530004004 309 0 18 1208 7218
vector 8570  Network.dyn_peer[11]  lookupStabilitySig:vector  ETV
8570	327480 10024 243 135892 20.20012 135.156530004004 309 -1.25 1 158.15277776122 119.87364968179
vector 8571  Network.dyn_peer[11]  lookupTimeSig:vector  ETV
8571	337504 9612 243 135892 20.20012 135.156530004004 309 0 1.7 135.2 80.42
vector 8578  Network.dyn_peer[14]  lookupHopsSig:vector  ETV
8578	401143 8934 250 136425 20.20015 135.810873556657 304 0 18 1277 8293
vector 8579  Network.dyn_peer[14]  lookupStabilitySig:vector  ETV
8579	410077 9956 250 136425 20.20015 135.810873556657 304 -1.25 1 144.45833330601 114.40952929597
vector 8580  Network.dyn_peer[14]  lookupTimeSig:vector  ETV
8580	420033 9516 250 136425 20.20015 135.810873556657 304 0 1.6 142 88.88
vector 8593  Network.dyn_peer[19]  lookupHopsSig:vector  ETV
8593	539983 9252 258 135977 20.2002 135.250447190418 314 0 19 1336 9100
vector 8594  Network.dyn_peer[19]  lookupStabilitySig:vector  ETV
8594	549235 10265 258 135977 20.2002 135.250447190418 314 -1.375 1 147 122.1875
vector 8595  Network.dyn_peer[19]  lookupTimeSig:vector  ETV
8595	559500 9843 258 135977 20.2002 135.250447190418 314 0 1.8 148.4 96.4
vector 8596  Network.dyn_peer[20]  lookupHopsSig:vector  ETV
8596	569343 8302 263 136119 20.20021 135.40912327048 283 0 22 1272 8460
vector 8597  Network.dyn_peer[20]  lookupStabilitySig:vector  ETV
8597	577645 9259 263 136119 20.20021 135.40912327048 283 -1.75 1 124.02777777612 97.229938269029
vector 8598  Network.dyn_peer[20]  lookupTimeSig:vector  ETV
8598	586904 8829 263 136119 20.20021 135.40912327048 283 0 2 139.8 90.22
vector 8614  Network.dyn_peer[26]  lookupHopsSig:vector  ETV
8614	730906 8379 273 136511 20.20027 135.889511221366 285 0 20 1215 8223
vector 8615  Network.dyn_peer[26]  lookupStabilitySig:vector  ETV
8615	739285 9305 273 136511 20.20027 135.889511221366 285 -1.5 1 133.125 109.734375
vector 8616  Network.dyn_peer[26]  lookupTimeSig:vector  ETV
8616	748590 8904 273 136511 20.20027 135.889511221366 285 0 1.8 135.8 88.8
vector 8626  Network.dyn_peer[30]  lookupHopsSig:vector  ETV
8626	835516 8188 281 136167 20.20031 135.447278861143 277 0 23 1308 10054
vector 8627  Network.dyn_peer[30]  lookupStabilitySig:vector  ETV
8627	843704 9092 281 136167 20.20031 135.447278861143 277 -1.875 1 113.54166665673 107.1475694312
vector 8628  Network.dyn_peer[30]  lookupTimeSig:vector  ETV
8628	852796 8692 281 136167 20.20031 135.447278861143 277 0 1.9 140 99.36
vector 8572  Network.dyn_peer[12]  lookupHopsSig:vector  ETV
8572	347116 8632 306 136202 20.30013 135.456630004004 295 0 19 1208 7694
vector 8573  Network.dyn_peer[12]  lookupStabilitySig:vector  ETV
8573	355748 9599 306 136202 20.30013 135.456630004004 295 -1.375 1 144 113.21875
vector 8574  Network.dyn_peer[12]  lookupTimeSig:vector  ETV
8574	365347 9174 306 136202 20.30013 135.456630004004 295 0 1.9 136.2 86.18
vector 8590  Network.dyn_peer[18]  lookupHopsSig:vector  ETV
8590	512603 8621 316 135461 20.30019 134.627324342439 293 0 17 1201 7595
vector 8591  Network.dyn_peer[18]  lookupStabilitySig:vector  ETV
8591	521224 9593 316 135461 20.30019 134.627324342439 293 -1.125 1 143.06944438815 111.43036266242
vector 8592  Network.dyn_peer[18]  lookupTimeSig:vector  ETV
8592	530817 9166 316 135461 20.30019 134.627324342439 293 0 1.4 135 83.38
vector 8611  Network.dyn_peer[25]  lookupHopsSig:vector  ETV
8611	706267 7757 328 135964 20.30026 135.246868039348 263 0 22 1263 8751
vector 8612  Network.dyn_peer[25]  lookupStabilitySig:vector  ETV
8612	714024 8644 328 135964 20.30026 135.246868039348 263 -1.75 1 105.3749999404 83.946566368327
vector 8613  Network.dyn_peer[25]  lookupTimeSig:vector  ETV
8613	722668 8238 328 135964 20.30026 135.246868039348 263 0 1.9 135.7 91.09
vector 8623  Network.dyn_peer[29]  lookupHopsSig:vector  ETV
8623	809572 8166 336 136599 20.3003 136.136472346296 277 0 24 1224 8454
vector 8624  Network.dyn_peer[29]  lookupStabilitySig:vector  ETV
8624	817738 9100 336 136599 20.3003 136.136472346296 277 -2 1 124.13888886571 103.20100306949
vector 8625  Network.dyn_peer[29]  lookupTimeSig:vector  ETV
8625	826838 8678 336 136599 20.3003 136.136472346296 277 0 2.2 134.7 89.93
vector 8599  Network.dyn_peer[21]  lookupHopsSig:vector  ETV
8599	595733 7855 377 136530 20.40022 135.920754563945 266 0 18 1283 9009
vector 8600  Network.dyn_peer[21]  lookupStabilitySig:vector  ETV
8600	603588 8783 377 136530 20.40022 135.920754563945 266 -1.25 1 105.83333328366 86.265046241107
vector 8601  Network.dyn_peer[21]  lookupTimeSig:vector  ETV
8601	612371 8332 377 136530 20.40022 135.920754563945 266 0 1.7 138.5 94.51
vector 8620  Network.dyn_peer[28]  lookupHopsSig:vector  ETV
8620	784282 7977 388 135357 20.40029 134.537686565352 272 0 21 1216 8248
vector 8621  Network.dyn_peer[28]  lookupStabilitySig:vector  ETV
8621	792259 8843 388 135357 20.40029 134.537686565352 272 -1.625 1 120.06944443285 96.971257700228
vector 8622  Network.dyn_peer[28]  lookupTimeSig:vector  ETV
8622	801102 8470 388 135357 20.40029 134.537686565352 272 0 1.9 132.9 86.99
vector 8608  Network.dyn_peer[24]  lookupHopsSig:vector  ETV
8608	679162 8528 606 135768 20.80025 135.004903304325 290 0 25 1284 9572
vector 8609  Network.dyn_peer[24]  lookupStabilitySig:vector  ETV
8609	687690 9514 606 135768 20.80025 135.004903304325 290 -2.125 1 129.61111108959 118.71257713143
vector 8610  Network.dyn_peer[24]  lookupTimeSig:vector  ETV
8610	697204 9063 606 135768 20.80025 135.004903304325 290 0 2 141.6 99.28
