file 1019737 1369933138                                         
version 2
run Stability-94-20130528-00:56:32-21385
attr configname Stability
attr datetime 20130528-00:56:32
attr experiment Stability
attr inifile omnetpp.ini
attr iterationvars $0=1e-3
attr iterationvars2 "$0=1e-3, $repetition=4"
attr measurement $0=1e-3
attr network Network
attr processid 21385
attr repetition 4
attr replication #4
attr resultdir results
attr runnumber 94
attr seedset 94
vector 9214  Network.churner  inGoingSizeSig:vector  ETV
9214	895630 124107 23 136233 20 134.712936087214 4097 0 31 125762 3882054
vector 9154  Network.dyn_peer[12]  lookupHopsSig:vector  ETV
9154	338810 8555 66 135547 20.000013 133.381661426972 291 0 26 1274 9108
vector 9155  Network.dyn_peer[12]  lookupStabilitySig:vector  ETV
9155	347365 9479 66 135547 20.000013 133.381661426972 291 -2.25 1 131.75 114.8125
vector 9156  Network.dyn_peer[12]  lookupTimeSig:vector  ETV
9156	356844 9096 66 135547 20.000013 133.381661426972 291 0 2.4 141.3 96.75
vector 9121  Network.dyn_peer[1]  lookupHopsSig:vector  ETV
9121	34530 8511 129 135765 20.100002 133.599820170558 290 0 27 1199 8059
vector 9122  Network.dyn_peer[1]  lookupStabilitySig:vector  ETV
9122	43041 9459 129 135765 20.100002 133.599820170558 290 -2.375 1 140.125 116.171875
vector 9123  Network.dyn_peer[1]  lookupTimeSig:vector  ETV
9123	52500 9066 129 135765 20.100002 133.599820170558 290 0 2.4 135.4 87.54
vector 9136  Network.dyn_peer[6]  lookupHopsSig:vector  ETV
9136	171090 8254 138 135825 20.100007 133.682848558556 281 0 19 1211 8393
vector 9137  Network.dyn_peer[6]  lookupStabilitySig:vector  ETV
9137	179344 9236 138 135825 20.100007 133.682848558556 281 -1.375 1 129.72222220898 109.50308640283
vector 9138  Network.dyn_peer[6]  lookupTimeSig:vector  ETV
9138	188580 8782 138 135825 20.100007 133.682848558556 281 0 1.9 131.7 86.01
vector 9142  Network.dyn_peer[8]  lookupHopsSig:vector  ETV
9142	223650 8695 144 135585 20.100009 133.397568124225 295 0 21 1229 7847
vector 9143  Network.dyn_peer[8]  lookupStabilitySig:vector  ETV
9143	232345 9665 144 135585 20.100009 133.397568124225 295 -1.625 1 141.52777779102 110.26813271016
vector 9144  Network.dyn_peer[8]  lookupTimeSig:vector  ETV
9144	242010 9247 144 135585 20.100009 133.397568124225 295 0.1 1.8 137.1 84.31
vector 9145  Network.dyn_peer[9]  lookupHopsSig:vector  ETV
9145	251257 8834 149 135383 20.10001 133.200350504079 300 0 17 1237 7961
vector 9146  Network.dyn_peer[9]  lookupStabilitySig:vector  ETV
9146	260091 9870 149 135383 20.10001 133.200350504079 300 -1.125 1 145.52777776867 115.35108023404
vector 9147  Network.dyn_peer[9]  lookupTimeSig:vector  ETV
9147	269961 9395 149 135383 20.10001 133.200350504079 300 0 1.6 138.6 87.8
vector 9151  Network.dyn_peer[11]  lookupHopsSig:vector  ETV
9151	309543 9243 155 135914 20.100012 133.772114413301 315 0 19 1287 8377
vector 9152  Network.dyn_peer[11]  lookupStabilitySig:vector  ETV
9152	318786 10205 155 135914 20.100012 133.772114413301 315 -1.375 1 154.125 124.140625
vector 9153  Network.dyn_peer[11]  lookupTimeSig:vector  ETV
9153	328991 9819 155 135914 20.100012 133.772114413301 315 0 1.9 144.2 92.12
vector 9160  Network.dyn_peer[14]  lookupHopsSig:vector  ETV
9160	396096 8224 162 135884 20.100015 133.744620597672 281 0 21 1141 7217
vector 9161  Network.dyn_peer[14]  lookupStabilitySig:vector  ETV
9161	404320 9120 162 135884 20.100015 133.744620597672 281 -1.625 1 138.41666665673 108.5694444312
vector 9162  Network.dyn_peer[14]  lookupTimeSig:vector  ETV
9162	413440 8747 162 135884 20.100015 133.744620597672 281 0 1.9 127.8 78.38
vector 9181  Network.dyn_peer[21]  lookupHopsSig:vector  ETV
9181	589812 8376 173 135307 20.100022 133.159471318629 284 0 23 1268 8740
vector 9182  Network.dyn_peer[21]  lookupStabilitySig:vector  ETV
9182	598188 9331 173 135307 20.100022 133.159471318629 284 -1.875 1 125.56944441795 103.61940584065
vector 9183  Network.dyn_peer[21]  lookupTimeSig:vector  ETV
9183	607519 8900 173 135307 20.100022 133.159471318629 284 0 1.9 138.2 90.66
vector 9187  Network.dyn_peer[23]  lookupHopsSig:vector  ETV
9187	642168 8530 179 136126 20.100024 134.07852908041 289 0 19 1325 9385
vector 9188  Network.dyn_peer[23]  lookupStabilitySig:vector  ETV
9188	650698 9490 179 136126 20.100024 134.07852908041 289 -1.375 1 123.41666665673 104.4444444312
vector 9189  Network.dyn_peer[23]  lookupTimeSig:vector  ETV
9189	660188 9070 179 136126 20.100024 134.07852908041 289 0 1.6 145.3 98.65
vector 9190  Network.dyn_peer[24]  lookupHopsSig:vector  ETV
9190	669258 8758 184 134868 20.100025 132.702819489715 299 0 14 1260 7906
vector 9191  Network.dyn_peer[24]  lookupStabilitySig:vector  ETV
9191	678016 9755 184 134868 20.100025 132.702819489715 299 -0.75 1 141.6249999851 107.60744597919
vector 9192  Network.dyn_peer[24]  lookupTimeSig:vector  ETV
9192	687771 9307 184 134868 20.100025 132.702819489715 299 0 1.5 142.2 89.6
vector 9193  Network.dyn_peer[25]  lookupHopsSig:vector  ETV
9193	697078 8777 189 135567 20.100026 133.391139632379 299 0 16 1232 7812
vector 9194  Network.dyn_peer[25]  lookupStabilitySig:vector  ETV
9194	705855 9803 189 135567 20.100026 133.391139632379 299 -1 1 145.30555549264 113.08333333996
vector 9195  Network.dyn_peer[25]  lookupTimeSig:vector  ETV
9195	715658 9335 189 135567 20.100026 133.391139632379 299 0 1.5 137.5 85.71
vector 9211  Network.dyn_peer[31]  lookupHopsSig:vector  ETV
9211	866093 9290 199 136059 20.100032 133.973808273668 317 0 19 1261 7701
vector 9212  Network.dyn_peer[31]  lookupStabilitySig:vector  ETV
9212	875383 10350 199 136059 20.100032 133.973808273668 317 -1.375 1 159.52777774632 122.23611108131
vector 9213  Network.dyn_peer[31]  lookupTimeSig:vector  ETV
9213	885733 9897 199 136059 20.100032 133.973808273668 317 0 1.6 141.8 84.16
vector 9124  Network.dyn_peer[2]  lookupHopsSig:vector  ETV
9124	61566 8648 208 135350 20.200003 133.188575183207 294 0 15 1315 8431
vector 9125  Network.dyn_peer[2]  lookupStabilitySig:vector  ETV
9125	70214 9592 208 135350 20.200003 133.188575183207 294 -0.875 1 129.625 96.984375
vector 9126  Network.dyn_peer[2]  lookupTimeSig:vector  ETV
9126	79806 9208 208 135350 20.200003 133.188575183207 294 0 1.5 143.7 90.77
vector 9157  Network.dyn_peer[13]  lookupHopsSig:vector  ETV
9157	365940 9510 223 136099 20.200014 134.028426608867 323 0 20 1310 8202
vector 9158  Network.dyn_peer[13]  lookupStabilitySig:vector  ETV
9158	375450 10529 223 136099 20.200014 134.028426608867 323 -1.5 1 159.34722220898 123.76871140283
vector 9159  Network.dyn_peer[13]  lookupTimeSig:vector  ETV
9159	385979 10117 223 136099 20.200014 134.028426608867 323 0 1.9 147.9 91.25
vector 9163  Network.dyn_peer[15]  lookupHopsSig:vector  ETV
9163	422187 9283 229 136231 20.200016 134.704039806452 316 0 13 1279 7821
vector 9164  Network.dyn_peer[15]  lookupStabilitySig:vector  ETV
9164	431470 10342 229 136231 20.200016 134.704039806452 316 -0.625 1 156.15277777612 118.50212191064
vector 9165  Network.dyn_peer[15]  lookupTimeSig:vector  ETV
9165	441812 9867 229 136231 20.200016 134.704039806452 316 0 1.4 144.5 88.01
vector 9166  Network.dyn_peer[16]  lookupHopsSig:vector  ETV
9166	451679 8743 234 136196 20.200017 134.342352915811 297 0 18 1199 7703
vector 9167  Network.dyn_peer[16]  lookupStabilitySig:vector  ETV
9167	460422 9734 234 136196 20.200017 134.342352915811 297 -1.25 1 147.125 117.609375
vector 9168  Network.dyn_peer[16]  lookupTimeSig:vector  ETV
9168	470156 9294 234 136196 20.200017 134.342352915811 297 0 1.8 134.2 83.32
vector 9184  Network.dyn_peer[22]  lookupHopsSig:vector  ETV
9184	616419 8116 243 135800 20.200023 133.629064656526 276 0 22 1268 8888
vector 9185  Network.dyn_peer[22]  lookupStabilitySig:vector  ETV
9185	624535 8998 243 135800 20.200023 133.629064656526 276 -1.75 1 117.5 97.875
vector 9186  Network.dyn_peer[22]  lookupTimeSig:vector  ETV
9186	633533 8635 243 135800 20.200023 133.629064656526 276 0 2 138.7 94.29
vector 9199  Network.dyn_peer[27]  lookupHopsSig:vector  ETV
9199	753016 9396 251 135997 20.200028 133.895396599178 319 0 18 1306 8460
vector 9200  Network.dyn_peer[27]  lookupStabilitySig:vector  ETV
9200	762412 10454 251 135997 20.200028 133.895396599178 319 -1.25 1 155.98611106724 124.83506940471
vector 9201  Network.dyn_peer[27]  lookupTimeSig:vector  ETV
9201	772866 9976 251 135997 20.200028 133.895396599178 319 0 1.6 144.1 90.33
vector 9202  Network.dyn_peer[28]  lookupHopsSig:vector  ETV
9202	782842 8429 256 135179 20.200029 133.020215569024 287 0 29 1216 8910
vector 9203  Network.dyn_peer[28]  lookupStabilitySig:vector  ETV
9203	791271 9413 256 135179 20.200029 133.020215569024 287 -2.625 1 135.08333332092 122.34606479715
vector 9204  Network.dyn_peer[28]  lookupTimeSig:vector  ETV
9204	800684 8954 256 135179 20.200029 133.020215569024 287 0 2.5 134.5 92.39
vector 9127  Network.dyn_peer[3]  lookupHopsSig:vector  ETV
9127	89014 8716 273 135605 20.300004 133.408938747745 296 0 19 1243 8149
vector 9128  Network.dyn_peer[3]  lookupStabilitySig:vector  ETV
9128	97730 9704 273 135605 20.300004 133.408938747745 296 -1.375 1 140.73611110449 112.72164350969
vector 9129  Network.dyn_peer[3]  lookupTimeSig:vector  ETV
9129	107434 9262 273 135605 20.300004 133.408938747745 296 0 1.8 137.3 88.33
vector 9130  Network.dyn_peer[4]  lookupHopsSig:vector  ETV
9130	116696 8846 278 135529 20.300005 133.365299531033 301 0 22 1242 8182
vector 9131  Network.dyn_peer[4]  lookupStabilitySig:vector  ETV
9131	125542 9845 278 135529 20.300005 133.365299531033 301 -1.75 1 145.77777777612 118.38618826903
vector 9132  Network.dyn_peer[4]  lookupTimeSig:vector  ETV
9132	135387 9397 278 135529 20.300005 133.365299531033 301 0 2.2 137.6 87.56
vector 9139  Network.dyn_peer[7]  lookupHopsSig:vector  ETV
9139	197362 8265 286 135120 20.300008 132.977675122952 281 0 26 1212 8462
vector 9140  Network.dyn_peer[7]  lookupStabilitySig:vector  ETV
9140	205627 9236 286 135120 20.300008 132.977675122952 281 -2.25 1 129.6249999702 110.33429781228
vector 9141  Network.dyn_peer[7]  lookupTimeSig:vector  ETV
9141	214863 8787 286 135120 20.300008 132.977675122952 281 0 2.1 133.4 85.96
vector 9148  Network.dyn_peer[10]  lookupHopsSig:vector  ETV
9148	279356 9494 293 135511 20.300011 133.355241264056 323 0 22 1326 8678
vector 9149  Network.dyn_peer[10]  lookupStabilitySig:vector  ETV
9149	288850 10596 293 135511 20.300011 133.355241264056 323 -1.75 1 157.3749999851 127.16994597919
vector 9150  Network.dyn_peer[10]  lookupTimeSig:vector  ETV
9150	299446 10097 293 135511 20.300011 133.355241264056 323 0 2 148.7 94.03
vector 9172  Network.dyn_peer[18]  lookupHopsSig:vector  ETV
9172	507227 8091 305 135640 20.300019 133.464612227506 274 0 25 1221 9207
vector 9173  Network.dyn_peer[18]  lookupStabilitySig:vector  ETV
9173	515318 8995 305 135640 20.300019 133.464612227506 274 -2.125 1 121.38888888806 112.63387345532
vector 9174  Network.dyn_peer[18]  lookupTimeSig:vector  ETV
9174	524313 8590 305 135640 20.300019 133.464612227506 274 0 2.1 132.9 91.79
vector 9175  Network.dyn_peer[19]  lookupHopsSig:vector  ETV
9175	532903 9006 310 135096 20.30002 132.966944057211 305 0 25 1270 8364
vector 9176  Network.dyn_peer[19]  lookupStabilitySig:vector  ETV
9176	541909 9986 310 135096 20.30002 132.966944057211 305 -2.125 1 146.375 118.171875
vector 9177  Network.dyn_peer[19]  lookupTimeSig:vector  ETV
9177	551895 9569 310 135096 20.30002 132.966944057211 305 0 2.3 142.7 92.07
vector 9208  Network.dyn_peer[30]  lookupHopsSig:vector  ETV
9208	837510 8977 323 135252 20.300031 133.091402151743 306 0 16 1207 7227
vector 9209  Network.dyn_peer[30]  lookupStabilitySig:vector  ETV
9209	846487 10044 323 135252 20.300031 133.091402151743 306 -1 1 155.41666664183 117.42399688746
vector 9210  Network.dyn_peer[30]  lookupTimeSig:vector  ETV
9210	856531 9562 323 135252 20.300031 133.091402151743 306 0 1.6 135.4 79.46
vector 9118  Network.dyn_peer[0]  lookupHopsSig:vector  ETV
9118	6438 8854 340 135692 20.400001 133.519441739665 301 0 17 1261 8351
vector 9119  Network.dyn_peer[0]  lookupStabilitySig:vector  ETV
9119	15292 9829 340 135692 20.400001 133.519441739665 301 -1.125 1 143.4999999702 116.33680552906
vector 9120  Network.dyn_peer[0]  lookupTimeSig:vector  ETV
9120	25121 9409 340 135692 20.400001 133.519441739665 301 0 1.6 139.2 89.02
vector 9133  Network.dyn_peer[5]  lookupHopsSig:vector  ETV
9133	144784 8288 348 136022 20.400006 133.909865547792 282 0 22 1263 8957
vector 9134  Network.dyn_peer[5]  lookupStabilitySig:vector  ETV
9134	153072 9214 348 136022 20.400006 133.909865547792 282 -1.75 1 124.16666665673 106.2569444312
vector 9135  Network.dyn_peer[5]  lookupTimeSig:vector  ETV
9135	162286 8804 348 136022 20.400006 133.909865547792 282 0 2.2 140.3 96.81
vector 9178  Network.dyn_peer[20]  lookupHopsSig:vector  ETV
9178	561464 8912 365 134815 20.400021 132.679452604763 304 0 16 1259 8151
vector 9179  Network.dyn_peer[20]  lookupStabilitySig:vector  ETV
9179	570376 9962 365 134815 20.400021 132.679452604763 304 -1 1 146.77777773887 116.7870369962
vector 9180  Network.dyn_peer[20]  lookupTimeSig:vector  ETV
9180	580338 9474 365 134815 20.400021 132.679452604763 304 0 1.5 139 85.5
vector 9196  Network.dyn_peer[26]  lookupHopsSig:vector  ETV
9196	724993 8823 374 136149 20.400027 134.097375309359 301 0 16 1240 7590
vector 9197  Network.dyn_peer[26]  lookupStabilitySig:vector  ETV
9197	733816 9811 374 136149 20.400027 134.097375309359 301 -1 1 146.02777777612 109.63618826903
vector 9198  Network.dyn_peer[26]  lookupTimeSig:vector  ETV
9198	743627 9389 374 136149 20.400027 134.097375309359 301 0 1.5 138 82.76
vector 9169  Network.dyn_peer[17]  lookupHopsSig:vector  ETV
9169	479450 8747 412 134964 20.500018 132.82393838014 298 0 24 1253 8717
vector 9170  Network.dyn_peer[17]  lookupStabilitySig:vector  ETV
9170	488197 9737 412 134964 20.500018 132.82393838014 298 -2 1 141.52777776122 121.01929010874
vector 9171  Network.dyn_peer[17]  lookupTimeSig:vector  ETV
9171	497934 9293 412 134964 20.500018 132.82393838014 298 0 2.4 140.2 94.34
vector 9205  Network.dyn_peer[29]  lookupHopsSig:vector  ETV
9205	809638 8766 427 135176 20.50003 133.019498613451 298 0 16 1211 7601
vector 9206  Network.dyn_peer[29]  lookupStabilitySig:vector  ETV
9206	818404 9774 427 135176 20.50003 133.019498613451 298 -1 1 146.73611110449 114.02797067754
vector 9207  Network.dyn_peer[29]  lookupTimeSig:vector  ETV
9207	828178 9332 427 135176 20.50003 133.019498613451 298 0 1.6 136.1 83.83
