version 2
run Stability-120-20130528-00:58:29-21385
attr configname Stability
attr datetime 20130528-00:58:29
attr experiment Stability
attr inifile omnetpp.ini
attr iterationvars $0=1e-6
attr iterationvars2 "$0=1e-6, $repetition=0"
attr measurement $0=1e-6
attr network Network
attr processid 21385
attr repetition 0
attr replication #0
attr resultdir results
attr runnumber 120
attr seedset 120

vector 11736  Network.churner  inGoingSizeSig:vector  ETV
vector 11646  Network.dyn_peer[2]  lookupHopsSig:vector  ETV
vector 11647  Network.dyn_peer[2]  lookupStabilitySig:vector  ETV
vector 11648  Network.dyn_peer[2]  lookupTimeSig:vector  ETV
vector 11652  Network.dyn_peer[4]  lookupHopsSig:vector  ETV
vector 11653  Network.dyn_peer[4]  lookupStabilitySig:vector  ETV
vector 11654  Network.dyn_peer[4]  lookupTimeSig:vector  ETV
vector 11685  Network.dyn_peer[15]  lookupHopsSig:vector  ETV
vector 11686  Network.dyn_peer[15]  lookupStabilitySig:vector  ETV
vector 11687  Network.dyn_peer[15]  lookupTimeSig:vector  ETV
vector 11655  Network.dyn_peer[5]  lookupHopsSig:vector  ETV
vector 11656  Network.dyn_peer[5]  lookupStabilitySig:vector  ETV
vector 11657  Network.dyn_peer[5]  lookupTimeSig:vector  ETV
vector 11658  Network.dyn_peer[6]  lookupHopsSig:vector  ETV
vector 11659  Network.dyn_peer[6]  lookupStabilitySig:vector  ETV
vector 11660  Network.dyn_peer[6]  lookupTimeSig:vector  ETV
vector 11688  Network.dyn_peer[16]  lookupHopsSig:vector  ETV
vector 11689  Network.dyn_peer[16]  lookupStabilitySig:vector  ETV
vector 11690  Network.dyn_peer[16]  lookupTimeSig:vector  ETV
vector 11697  Network.dyn_peer[19]  lookupHopsSig:vector  ETV
vector 11698  Network.dyn_peer[19]  lookupStabilitySig:vector  ETV
vector 11699  Network.dyn_peer[19]  lookupTimeSig:vector  ETV
vector 11700  Network.dyn_peer[20]  lookupHopsSig:vector  ETV
vector 11701  Network.dyn_peer[20]  lookupStabilitySig:vector  ETV
vector 11702  Network.dyn_peer[20]  lookupTimeSig:vector  ETV
vector 11703  Network.dyn_peer[21]  lookupHopsSig:vector  ETV
vector 11704  Network.dyn_peer[21]  lookupStabilitySig:vector  ETV
vector 11705  Network.dyn_peer[21]  lookupTimeSig:vector  ETV
vector 11724  Network.dyn_peer[28]  lookupHopsSig:vector  ETV
vector 11725  Network.dyn_peer[28]  lookupStabilitySig:vector  ETV
vector 11726  Network.dyn_peer[28]  lookupTimeSig:vector  ETV
vector 11727  Network.dyn_peer[29]  lookupHopsSig:vector  ETV
vector 11728  Network.dyn_peer[29]  lookupStabilitySig:vector  ETV
vector 11729  Network.dyn_peer[29]  lookupTimeSig:vector  ETV
vector 11640  Network.dyn_peer[0]  lookupHopsSig:vector  ETV
vector 11641  Network.dyn_peer[0]  lookupStabilitySig:vector  ETV
vector 11642  Network.dyn_peer[0]  lookupTimeSig:vector  ETV
vector 11643  Network.dyn_peer[1]  lookupHopsSig:vector  ETV
vector 11644  Network.dyn_peer[1]  lookupStabilitySig:vector  ETV
vector 11645  Network.dyn_peer[1]  lookupTimeSig:vector  ETV
vector 11661  Network.dyn_peer[7]  lookupHopsSig:vector  ETV
vector 11662  Network.dyn_peer[7]  lookupStabilitySig:vector  ETV
vector 11663  Network.dyn_peer[7]  lookupTimeSig:vector  ETV
vector 11670  Network.dyn_peer[10]  lookupHopsSig:vector  ETV
vector 11671  Network.dyn_peer[10]  lookupStabilitySig:vector  ETV
vector 11672  Network.dyn_peer[10]  lookupTimeSig:vector  ETV
vector 11673  Network.dyn_peer[11]  lookupHopsSig:vector  ETV
vector 11674  Network.dyn_peer[11]  lookupStabilitySig:vector  ETV
vector 11675  Network.dyn_peer[11]  lookupTimeSig:vector  ETV
vector 11676  Network.dyn_peer[12]  lookupHopsSig:vector  ETV
vector 11677  Network.dyn_peer[12]  lookupStabilitySig:vector  ETV
vector 11678  Network.dyn_peer[12]  lookupTimeSig:vector  ETV
vector 11682  Network.dyn_peer[14]  lookupHopsSig:vector  ETV
vector 11683  Network.dyn_peer[14]  lookupStabilitySig:vector  ETV
vector 11684  Network.dyn_peer[14]  lookupTimeSig:vector  ETV
vector 11709  Network.dyn_peer[23]  lookupHopsSig:vector  ETV
vector 11710  Network.dyn_peer[23]  lookupStabilitySig:vector  ETV
vector 11711  Network.dyn_peer[23]  lookupTimeSig:vector  ETV
vector 11718  Network.dyn_peer[26]  lookupHopsSig:vector  ETV
vector 11719  Network.dyn_peer[26]  lookupStabilitySig:vector  ETV
vector 11720  Network.dyn_peer[26]  lookupTimeSig:vector  ETV
vector 11730  Network.dyn_peer[30]  lookupHopsSig:vector  ETV
vector 11731  Network.dyn_peer[30]  lookupStabilitySig:vector  ETV
vector 11732  Network.dyn_peer[30]  lookupTimeSig:vector  ETV
vector 11733  Network.dyn_peer[31]  lookupHopsSig:vector  ETV
vector 11734  Network.dyn_peer[31]  lookupStabilitySig:vector  ETV
vector 11735  Network.dyn_peer[31]  lookupTimeSig:vector  ETV
vector 11667  Network.dyn_peer[9]  lookupHopsSig:vector  ETV
vector 11668  Network.dyn_peer[9]  lookupStabilitySig:vector  ETV
vector 11669  Network.dyn_peer[9]  lookupTimeSig:vector  ETV
vector 11706  Network.dyn_peer[22]  lookupHopsSig:vector  ETV
vector 11707  Network.dyn_peer[22]  lookupStabilitySig:vector  ETV
vector 11708  Network.dyn_peer[22]  lookupTimeSig:vector  ETV
vector 11712  Network.dyn_peer[24]  lookupHopsSig:vector  ETV
vector 11713  Network.dyn_peer[24]  lookupStabilitySig:vector  ETV
vector 11714  Network.dyn_peer[24]  lookupTimeSig:vector  ETV
vector 11715  Network.dyn_peer[25]  lookupHopsSig:vector  ETV
vector 11716  Network.dyn_peer[25]  lookupStabilitySig:vector  ETV
vector 11717  Network.dyn_peer[25]  lookupTimeSig:vector  ETV
vector 11721  Network.dyn_peer[27]  lookupHopsSig:vector  ETV
vector 11722  Network.dyn_peer[27]  lookupStabilitySig:vector  ETV
vector 11723  Network.dyn_peer[27]  lookupTimeSig:vector  ETV
vector 11664  Network.dyn_peer[8]  lookupHopsSig:vector  ETV
vector 11665  Network.dyn_peer[8]  lookupStabilitySig:vector  ETV
vector 11666  Network.dyn_peer[8]  lookupTimeSig:vector  ETV
vector 11691  Network.dyn_peer[17]  lookupHopsSig:vector  ETV
vector 11692  Network.dyn_peer[17]  lookupStabilitySig:vector  ETV
vector 11693  Network.dyn_peer[17]  lookupTimeSig:vector  ETV
vector 11694  Network.dyn_peer[18]  lookupHopsSig:vector  ETV
vector 11695  Network.dyn_peer[18]  lookupStabilitySig:vector  ETV
vector 11696  Network.dyn_peer[18]  lookupTimeSig:vector  ETV
vector 11649  Network.dyn_peer[3]  lookupHopsSig:vector  ETV
vector 11650  Network.dyn_peer[3]  lookupStabilitySig:vector  ETV
vector 11651  Network.dyn_peer[3]  lookupTimeSig:vector  ETV
vector 11679  Network.dyn_peer[13]  lookupHopsSig:vector  ETV
vector 11680  Network.dyn_peer[13]  lookupStabilitySig:vector  ETV
vector 11681  Network.dyn_peer[13]  lookupTimeSig:vector  ETV
11640	199	20.200000001	2
11640	513	20.700000001	4
11640	813	21.103194185096	3
11640	1093	21.406046119272	2
11640	1766	21.908658175381	7
11640	1808	21.911852171709	7
11640	2142	22.20032676882	6
11640	2430	22.408330881107	1
11640	2438	22.409488182762	1
11640	2788	22.70020003	14
11640	2793	22.701605833675	6
11640	2924	22.808576512032	3
11640	2959	22.816093474971	3
11640	3258	23.020634035555	12
11640	3417	23.212625341506	3
11640	3515	23.306825843457	5
11640	3522	23.309472764143	5
11640	4013	23.709572765143	4
11640	4294	23.909572765143	1
11640	4768	24.217238661605	3
11640	4866	24.325554843286	2
11640	5010	24.420203064435	1
11640	5375	24.826624081162	4
11640	5487	24.912492001536	4
11640	5714	25.118078428889	2
11640	5963	25.418078428889	2
11640	6849	26.323539849038	9
11640	7388	26.833418073056	6
11640	7666	27.039913514864	1
11640	7682	27.044114532076	2
11640	7779	27.148743522127	1
11640	8017	27.361243046697	7
11640	8138	27.455419882664	3
11640	8149	27.45843798437	3
11640	8228	27.544838938271	4
11640	8231	27.548307664454	4
11640	8682	27.848407665454	5
11640	8982	28.048407665454	2
11640	9819	28.748507666454	7
11640	10143	29.048507666454	2
11640	10634	29.449824197891	3
11640	11592	30.371609473025	13
11640	11797	30.572303378641	7
11640	11835	30.580188762293	1
11640	12612	31.288533682126	7
11640	12995	31.588533682126	2
11640	13453	31.990242937485	3
11640	13845	32.283623701308	2
11640	14125	32.486537535599	1
11640	14231	32.584470398185	3
11640	15469	33.789859693085	12
11640	16044	34.389859693085	5
11640	16238	34.594293504573	2
11640	16390	34.721966169061	2
11640	16706	35.029248726924	3
11640	17031	35.329248726924	2
11640	17356	35.639093694183	2
11640	17393	35.691124664701	2
11640	17754	35.997585502924	3
11640	19142	37.097585502924	10
11640	19831	37.597685503924	5
11640	20910	38.597685503924	9
11640	21186	38.799218686697	2
11640	21214	38.836732300961	1
11640	22118	39.544326327854	7
11640	22226	39.644326327854	1
11640	22457	39.848153788317	1
11640	22949	40.248664544033	2
11640	23252	40.554863882301	2
11640	23337	40.653729660229	8
11640	23518	40.857006027473	2
11640	24106	41.355585580994	6
11640	24705	41.856935974903	4
11640	25450	42.36513987506	5
11640	26230	43.06513987506	7
11640	26482	43.267920349959	1
11640	26701	43.462102361336	1
11640	26991	43.770621292078	4
11640	27262	43.99026472189	2
11640	27462	44.165364525167	6
11640	27991	44.565622084952	4
11640	28342	44.865622084952	2
11640	28602	45.075984066639	1
11640	29412	45.743582783393	4
11640	29458	45.776240869961	7
11640	29710	45.94839434054	1
11640	29853	46.055954336711	1
11640	30857	46.965036594549	8
11640	31513	47.573867122301	7
11640	32344	48.273867122301	6
11640	32588	48.481837694461	6
11640	33088	48.881937695461	4
11640	33490	49.181937695461	2
11640	33740	49.390415430551	1
11640	34811	50.254338388072	4
11640	34973	50.394523744995	11
11640	35391	50.700592478165	3
11640	35852	51.100592478165	3
11640	36294	51.410799785082	3
11640	36534	51.609601267205	2
11640	36562	51.621604377803	1
11640	37771	52.62371815625	10
11640	38696	53.32371815625	6
11640	39448	53.875228617127	1
11640	39985	54.275228617127	4
11640	40852	54.978318568529	6
11640	40954	55.058599780576	6
11640	41258	55.282076704204	2
11640	42906	56.789858937609	19
11640	43381	57.189858937609	3
11640	44923	58.491046811219	13
11640	44939	58.497697482217	15
11640	45585	58.993661362158	4
11640	45604	59.007565413604	5
11640	46095	59.435945582206	9
11640	46826	60.036045583206	7
11640	47269	60.436045583206	4
11640	47541	60.639418076419	1
11640	47625	60.72697632049	1
11640	47641	60.728109236987	0
11640	47811	60.828109236987	1
11640	48455	61.335577811489	4
11640	48820	61.54403213732	3
11640	49412	61.94403213732	3
11640	49939	62.350363821161	3
11640	51004	63.213200377158	6
11640	51722	63.813200377158	5
11640	52174	64.213626887146	3
11640	52516	64.495986983208	2
11640	53584	65.399282719426	9
11640	53828	65.599282719426	1
11640	54841	66.503322658721	9
11640	55212	66.810748531648	2
11640	55591	67.19343351732	4
11640	55872	67.394524460767	2
11640	55926	67.414037112283	5
11640	55952	67.44756202114	1
11640	57431	68.652506217386	15
11640	58232	69.452506217386	8
11640	58413	69.658786171569	1
11640	58703	69.881313460074	1
11640	58821	69.983789619487	0
11640	59982	70.989616815412	9
11640	60230	71.191500749516	1
11640	61260	71.99231894343	8
11640	61656	72.29231894343	2
11640	61825	72.406640536696	1
11640	62036	72.595340405643	6
11640	62084	72.60996739582	2
11640	62098	72.614305966818	1
11640	62187	72.6987753997	3
11640	62465	72.8988754007	2
11640	62884	73.2988754007	3
11640	63215	73.608811493719	2
11640	64130	74.389980387432	1
11640	64293	74.4975394252	1
11640	64754	74.8975394252	3
11640	64859	74.9976394262	1
11640	65245	75.3976394262	3
11640	65994	76.028255591435	4
11640	66320	76.308073695544	2
11640	66382	76.34505374523	10
11640	66397	76.345354348656	0
11640	66862	76.745354348656	3
11640	67293	77.045932638584	2
11640	67317	77.061489293046	2
11640	67657	77.251351556511	1
11640	67834	77.369105627971	2
11640	69276	78.473676182846	11
11640	70222	79.173676182846	7
11640	70539	79.477870676428	4
11640	70975	79.884512909037	3
11640	71003	79.960291179183	5
11640	71274	80.16506352114	2
11640	71545	80.36506352114	1
11640	71861	80.598444397638	1
11640	72595	81.10562579687	6
11640	73177	81.50562579687	4
11640	73329	81.613376639155	1
11640	73667	81.914010118982	2
11640	74203	82.315887029994	4
11640	74588	82.715887029994	3
11640	75405	83.41742484612	6
11640	75424	83.462652070073	6
11640	75796	83.731344164566	2
11640	75807	83.770202583926	2
11640	76044	83.974771346683	2
11640	77110	84.774771346683	7
11640	77467	84.987764157067	5
11640	77612	85.092912469832	2
11640	78119	85.43325689628	4
11640	78176	85.491181245565	7
11640	78200	85.496200866512	3
11640	79093	86.196704724212	7
11640	79548	86.596704724212	3
11640	80954	87.724142633174	9
11640	81179	87.924142633174	1
11640	81458	88.131558758707	1
11640	81833	88.44134823927	3
11640	82618	89.14134823927	6
11640	83326	89.741494775611	6
11640	83729	90.041494775611	2
11640	84154	90.344467119102	2
11640	84628	90.664030536233	2
11640	85440	91.370793634419	6
11640	85456	91.377549259124	9
11640	85670	91.577649260124	2
11640	85883	91.777649260124	1
11640	86320	92.180424048563	3
11640	86902	92.590123132307	2
11640	87236	92.890223133307	3
11640	88072	93.690223133307	9
11640	88913	94.390323134307	7
11640	89231	94.598465701795	1
11640	89795	95.014389831478	3
11640	90826	95.81567469229	9
11640	91086	96.023000792722	2
11640	91360	96.223000792722	1
11640	91772	96.531266352881	3
11640	92213	96.831366353881	3
11640	92534	97.037112726039	2
11640	93524	97.824797508718	7
11640	94356	98.524797508718	6
11640	94833	98.93250707966	2
11640	95036	99.073682468576	5
11640	95152	99.141084403914	1
11640	95823	99.751131982798	6
11640	96395	100.151131982798	3
11640	96959	100.56454405377	3
11640	97676	101.170611145299	5
11640	97770	101.254983576405	4
11640	97801	101.303612373527	10
11640	98214	101.610452772305	3
11640	98854	102.160600706131	2
11640	99274	102.460600706131	2
11640	99534	102.665982021616	1
11640	100593	103.472056578847	8
11640	101492	104.178377865712	8
11640	101860	104.478377865712	2
11640	102286	104.884569085323	5
11640	102750	105.374679034744	1
11640	102883	105.476627111003	1
11640	103203	105.776627111003	3
11640	104209	106.580814975557	8
11640	104441	106.782371439818	1
11640	104475	106.831054332572	1
11640	104493	106.859943975343	6
11640	104785	107.068319022664	2
11640	104930	107.184265530969	3
11640	105208	107.403468679673	4
11640	105611	107.709055607842	4
11640	107158	108.909055607842	11
11640	107532	109.210123056272	2
11640	107793	109.412303224639	1
11640	108196	109.727495374003	2
11640	108377	109.927308001879	3
11640	108586	110.136551247144	2
11640	108832	110.336551247144	1
11640	109788	111.140811723741	7
11640	110341	111.545767985987	3
11640	110527	111.749489707468	1
11640	111034	112.151703624432	3
11640	111490	112.614130822678	7
11640	111957	113.020370242011	4
11640	112658	113.520370242011	5
11640	112978	113.728202623932	1
11640	113216	113.897007359406	2
11640	113254	113.928629681064	1
11640	113261	113.929702863993	4
11640	113271	113.934341664451	1
11640	113672	114.303027208219	3
11640	113705	114.336585260845	3
11640	113707	114.338571698788	3
11640	114066	114.640837243599	3
11640	114546	115.140837243599	4
11640	115427	115.843282293378	7
11640	116026	116.343382294378	5
11640	116549	116.743382294378	3
11640	117018	117.15292966108	3
11640	117257	117.358922212428	1
11640	117609	117.66066887888	2
11640	117774	117.842843747996	4
11640	118195	118.250124632291	3
11640	118520	118.550901710176	3
11640	118950	118.950901710176	3
11640	119269	119.260051348005	3
11640	119506	119.469763267131	1
11640	120095	119.978201227383	4
11640	120281	120.102086405803	4
11640	120989	120.686035774349	6
11640	121263	120.894847347933	1
11640	121298	120.917605253986	13
11640	121531	121.099088194487	1
11640	121535	121.10268516837	1
11640	121852	121.404930179393	3
11640	122984	122.504930179393	11
11640	123749	123.207366873656	6
11640	124409	123.811745069467	6
11640	124798	124.111745069467	2
11640	126427	125.536555030609	7
11640	127531	126.536555030609	9
11640	128001	127.029251568802	6
11640	128023	127.038421467172	4
11640	128658	127.642885776612	7
11640	128882	127.848931774963	1
11640	129035	127.951524414077	1
11640	129186	128.064617186488	1
11640	129459	128.264717187488	2
11640	129830	128.564717187488	2
11640	130761	129.270980966426	7
11640	131081	129.476725085768	1
11640	131139	129.539766880263	6
11640	131143	129.541329409538	6
11640	131158	129.541429410538	0
11640	131910	130.141429410538	5
11640	132144	130.348125307237	1
11640	132854	130.964549369751	3
11640	133281	131.357968893058	10
11640	133400	131.46197923221	2
11640	133794	131.867883360829	3
11641	199	20.200000001	0.75
11641	513	20.700000001	0.5
11641	813	21.103194185096	0.625
11641	1093	21.406046119272	0.75
11641	1766	21.908658175381	0.125
11641	1808	21.911852171709	0.125
11641	2142	22.20032676882	0.25
11641	2430	22.408330881107	0.875
11641	2438	22.409488182762	0.875
11641	2788	22.70020003	-0.75
11641	2793	22.701605833675	0.25
11641	2924	22.808576512032	0.625
11641	2959	22.816093474971	0.625
11641	3258	23.020634035555	-0.5
11641	3417	23.212625341506	0.625
11641	3515	23.306825843457	0.375
11641	3522	23.309472764143	0.375
11641	4013	23.709572765143	0.5
11641	4294	23.909572765143	0.875
11641	4768	24.217238661605	0.625
11641	4866	24.325554843286	0.75
11641	5010	24.420203064435	0.875
11641	5375	24.826624081162	0.5
11641	5487	24.912492001536	0.5
11641	5714	25.118078428889	0.75
11641	5963	25.418078428889	0.75
11641	6849	26.323539849038	-0.125
11641	7388	26.833418073056	0.25
11641	7666	27.039913514864	0.875
11641	7682	27.044114532076	0.75
11641	7779	27.148743522127	0.875
11641	8017	27.361243046697	0.125
11641	8138	27.455419882664	0.625
11641	8149	27.45843798437	0.625
11641	8228	27.544838938271	0.5
11641	8231	27.548307664454	0.5
11641	8682	27.848407665454	0.375
11641	8982	28.048407665454	0.75
11641	9819	28.748507666454	0.125
11641	10143	29.048507666454	0.75
11641	10634	29.449824197891	0.625
11641	11592	30.371609473025	-0.625
11641	11797	30.572303378641	0.125
11641	11835	30.580188762293	0.875
11641	12612	31.288533682126	0.125
11641	12995	31.588533682126	0.75
11641	13453	31.990242937485	0.625
11641	13845	32.283623701308	0.75
11641	14125	32.486537535599	0.875
11641	14231	32.584470398185	0.625
11641	15469	33.789859693085	-0.5
11641	16044	34.389859693085	0.375
11641	16238	34.594293504573	0.75
11641	16390	34.721966169061	0.75
11641	16706	35.029248726924	0.625
11641	17031	35.329248726924	0.75
11641	17356	35.639093694183	0.75
11641	17393	35.691124664701	0.75
11641	17754	35.997585502924	0.625
11641	19142	37.097585502924	-0.25
11641	19831	37.597685503924	0.375
11641	20910	38.597685503924	-0.125
11641	21186	38.799218686697	0.75
11641	21214	38.836732300961	0.875
11641	22118	39.544326327854	0.125
11641	22226	39.644326327854	0.875
11641	22457	39.848153788317	0.875
11641	22949	40.248664544033	0.75
11641	23252	40.554863882301	0.75
11641	23337	40.653729660229	0
11641	23518	40.857006027473	0.75
11641	24106	41.355585580994	0.25
11641	24705	41.856935974903	0.5
11641	25450	42.36513987506	0.375
11641	26230	43.06513987506	0.125
11641	26482	43.267920349959	0.875
11641	26701	43.462102361336	0.875
11641	26991	43.770621292078	0.5
11641	27262	43.99026472189	0.75
11641	27462	44.165364525167	0.25
11641	27991	44.565622084952	0.5
11641	28342	44.865622084952	0.75
11641	28602	45.075984066639	0.875
11641	29412	45.743582783393	0.5
11641	29458	45.776240869961	0.125
11641	29710	45.94839434054	0.875
11641	29853	46.055954336711	0.875
11641	30857	46.965036594549	0
11641	31513	47.573867122301	0.125
11641	32344	48.273867122301	0.25
11641	32588	48.481837694461	0.25
11641	33088	48.881937695461	0.5
11641	33490	49.181937695461	0.75
11641	33740	49.390415430551	0.875
11641	34811	50.254338388072	0.5
11641	34973	50.394523744995	-0.375
11641	35391	50.700592478165	0.625
11641	35852	51.100592478165	0.625
11641	36294	51.410799785082	0.625
11641	36534	51.609601267205	0.75
11641	36562	51.621604377803	0.875
11641	37771	52.62371815625	-0.25
11641	38696	53.32371815625	0.25
11641	39448	53.875228617127	0.875
11641	39985	54.275228617127	0.55555555224419
11641	40852	54.978318568529	0.25
11641	40954	55.058599780576	0.25
11641	41258	55.282076704204	0.75
11641	42906	56.789858937609	-1.375
11641	43381	57.189858937609	0.625
11641	44923	58.491046811219	-0.625
11641	44939	58.497697482217	-0.875
11641	45585	58.993661362158	0.5
11641	45604	59.007565413604	0.375
11641	46095	59.435945582206	-0.125
11641	46826	60.036045583206	0.125
11641	47269	60.436045583206	0.5
11641	47541	60.639418076419	0.875
11641	47625	60.72697632049	0.875
11641	47641	60.728109236987	1
11641	47811	60.828109236987	0.875
11641	48455	61.335577811489	0.5
11641	48820	61.54403213732	0.625
11641	49412	61.94403213732	0.625
11641	49939	62.350363821161	0.625
11641	51004	63.213200377158	0.25
11641	51722	63.813200377158	0.375
11641	52174	64.213626887146	0.625
11641	52516	64.495986983208	0.75
11641	53584	65.399282719426	-0.125
11641	53828	65.599282719426	0.875
11641	54841	66.503322658721	-0.125
11641	55212	66.810748531648	0.75
11641	55591	67.19343351732	0.5
11641	55872	67.394524460767	0.75
11641	55926	67.414037112283	0.375
11641	55952	67.44756202114	0.875
11641	57431	68.652506217386	-0.875
11641	58232	69.452506217386	0
11641	58413	69.658786171569	0.875
11641	58703	69.881313460074	0.875
11641	58821	69.983789619487	1
11641	59982	70.989616815412	-0.125
11641	60230	71.191500749516	0.875
11641	61260	71.99231894343	0
11641	61656	72.29231894343	0.75
11641	61825	72.406640536696	0.875
11641	62036	72.595340405643	0.25
11641	62084	72.60996739582	0.75
11641	62098	72.614305966818	0.875
11641	62187	72.6987753997	0.625
11641	62465	72.8988754007	0.75
11641	62884	73.2988754007	0.625
11641	63215	73.608811493719	0.75
11641	64130	74.389980387432	0.875
11641	64293	74.4975394252	0.875
11641	64754	74.8975394252	0.625
11641	64859	74.9976394262	0.875
11641	65245	75.3976394262	0.625
11641	65994	76.028255591435	0.5
11641	66320	76.308073695544	0.75
11641	66382	76.34505374523	-0.25
11641	66397	76.345354348656	1
11641	66862	76.745354348656	0.625
11641	67293	77.045932638584	0.75
11641	67317	77.061489293046	0.75
11641	67657	77.251351556511	0.875
11641	67834	77.369105627971	0.75
11641	69276	78.473676182846	-0.375
11641	70222	79.173676182846	0.125
11641	70539	79.477870676428	0.55555555224419
11641	70975	79.884512909037	0.625
11641	71003	79.960291179183	0.375
11641	71274	80.16506352114	0.75
11641	71545	80.36506352114	0.875
11641	71861	80.598444397638	0.875
11641	72595	81.10562579687	0.25
11641	73177	81.50562579687	0.5
11641	73329	81.613376639155	0.875
11641	73667	81.914010118982	0.75
11641	74203	82.315887029994	0.5
11641	74588	82.715887029994	0.625
11641	75405	83.41742484612	0.25
11641	75424	83.462652070073	0.25
11641	75796	83.731344164566	0.75
11641	75807	83.770202583926	0.75
11641	76044	83.974771346683	0.75
11641	77110	84.774771346683	0.125
11641	77467	84.987764157067	0.375
11641	77612	85.092912469832	0.75
11641	78119	85.43325689628	0.5
11641	78176	85.491181245565	0.125
11641	78200	85.496200866512	0.625
11641	79093	86.196704724212	0.125
11641	79548	86.596704724212	0.625
11641	80954	87.724142633174	-0.125
11641	81179	87.924142633174	0.875
11641	81458	88.131558758707	0.875
11641	81833	88.44134823927	0.625
11641	82618	89.14134823927	0.25
11641	83326	89.741494775611	0.25
11641	83729	90.041494775611	0.75
11641	84154	90.344467119102	0.75
11641	84628	90.664030536233	0.75
11641	85440	91.370793634419	0.25
11641	85456	91.377549259124	-0.125
11641	85670	91.577649260124	0.75
11641	85883	91.777649260124	0.875
11641	86320	92.180424048563	0.625
11641	86902	92.590123132307	0.75
11641	87236	92.890223133307	0.625
11641	88072	93.690223133307	-0.125
11641	88913	94.390323134307	0.125
11641	89231	94.598465701795	0.875
11641	89795	95.014389831478	0.625
11641	90826	95.81567469229	-0.125
11641	91086	96.023000792722	0.75
11641	91360	96.223000792722	0.875
11641	91772	96.531266352881	0.625
11641	92213	96.831366353881	0.625
11641	92534	97.037112726039	0.75
11641	93524	97.824797508718	0.125
11641	94356	98.524797508718	0.25
11641	94833	98.93250707966	0.75
11641	95036	99.073682468576	0.375
11641	95152	99.141084403914	0.875
11641	95823	99.751131982798	0.25
11641	96395	100.151131982798	0.625
11641	96959	100.56454405377	0.625
11641	97676	101.170611145299	0.375
11641	97770	101.254983576405	0.5
11641	97801	101.303612373527	-0.25
11641	98214	101.610452772305	0.625
11641	98854	102.160600706131	0.75
11641	99274	102.460600706131	0.75
11641	99534	102.665982021616	0.875
11641	100593	103.472056578847	0
11641	101492	104.178377865712	0
11641	101860	104.478377865712	0.75
11641	102286	104.884569085323	0.375
11641	102750	105.374679034744	0.875
11641	102883	105.476627111003	0.875
11641	103203	105.776627111003	0.625
11641	104209	106.580814975557	0
11641	104441	106.782371439818	0.875
11641	104475	106.831054332572	0.875
11641	104493	106.859943975343	0.25
11641	104785	107.068319022664	0.75
11641	104930	107.184265530969	0.625
11641	105208	107.403468679673	0.5
11641	105611	107.709055607842	0.5
11641	107158	108.909055607842	-0.375
11641	107532	109.210123056272	0.75
11641	107793	109.412303224639	0.875
11641	108196	109.727495374003	0.75
11641	108377	109.927308001879	0.625
11641	108586	110.136551247144	0.75
11641	108832	110.336551247144	0.875
11641	109788	111.140811723741	0.125
11641	110341	111.545767985987	0.625
11641	110527	111.749489707468	0.875
11641	111034	112.151703624432	0.625
11641	111490	112.614130822678	0.125
11641	111957	113.020370242011	0.5
11641	112658	113.520370242011	0.375
11641	112978	113.728202623932	0.875
11641	113216	113.897007359406	0.75
11641	113254	113.928629681064	0.875
11641	113261	113.929702863993	0.5
11641	113271	113.934341664451	0.875
11641	113672	114.303027208219	0.625
11641	113705	114.336585260845	0.625
11641	113707	114.338571698788	0.625
11641	114066	114.640837243599	0.625
11641	114546	115.140837243599	0.5
11641	115427	115.843282293378	0.125
11641	116026	116.343382294378	0.375
11641	116549	116.743382294378	0.625
11641	117018	117.15292966108	0.625
11641	117257	117.358922212428	0.875
11641	117609	117.66066887888	0.75
11641	117774	117.842843747996	0.5
11641	118195	118.250124632291	0.625
11641	118520	118.550901710176	0.625
11641	118950	118.950901710176	0.625
11641	119269	119.260051348005	0.625
11641	119506	119.469763267131	0.875
11641	120095	119.978201227383	0.5
11641	120281	120.102086405803	0.5
11641	120989	120.686035774349	0.25
11641	121263	120.894847347933	0.875
11641	121298	120.917605253986	-0.625
11641	121531	121.099088194487	0.875
11641	121535	121.10268516837	0.875
11641	121852	121.404930179393	0.66666665673256
11641	122984	122.504930179393	-0.375
11641	123749	123.207366873656	0.25
11641	124409	123.811745069467	0.25
11641	124798	124.111745069467	0.75
11641	126427	125.536555030609	0.125
11641	127531	126.536555030609	-0.125
11641	128001	127.029251568802	0.25
11641	128023	127.038421467172	0.5
11641	128658	127.642885776612	0.125
11641	128882	127.848931774963	0.875
11641	129035	127.951524414077	0.875
11641	129186	128.064617186488	0.875
11641	129459	128.264717187488	0.75
11641	129830	128.564717187488	0.75
11641	130761	129.270980966426	0.125
11641	131081	129.476725085768	0.875
11641	131139	129.539766880263	0.25
11641	131143	129.541329409538	0.25
11641	131158	129.541429410538	1
11641	131910	130.141429410538	0.375
11641	132144	130.348125307237	0.875
11641	132854	130.964549369751	0.625
11641	133281	131.357968893058	-0.25
11641	133400	131.46197923221	0.75
11641	133794	131.867883360829	0.625
11642	199	20.200000001	0.2
11642	513	20.700000001	0.5
11642	813	21.103194185096	0.4
11642	1093	21.406046119272	0.3
11642	1766	21.908658175381	0.5
11642	1808	21.911852171709	0.5
11642	2142	22.20032676882	0.7
11642	2430	22.408330881107	0.2
11642	2438	22.409488182762	0.2
11642	2788	22.70020003	1.3
11642	2793	22.701605833675	0.7
11642	2924	22.808576512032	0.4
11642	2959	22.816093474971	0.4
11642	3258	23.020634035555	1.1
11642	3417	23.212625341506	0.4
11642	3515	23.306825843457	0.6
11642	3522	23.309472764143	0.6
11642	4013	23.709572765143	0.4
11642	4294	23.909572765143	0.2
11642	4768	24.217238661605	0.3
11642	4866	24.325554843286	0.3
11642	5010	24.420203064435	0.2
11642	5375	24.826624081162	0.5
11642	5487	24.912492001536	0.5
11642	5714	25.118078428889	0.2
11642	5963	25.418078428889	0.3
11642	6849	26.323539849038	0.9
11642	7388	26.833418073056	0.5
11642	7666	27.039913514864	0.2
11642	7682	27.044114532076	0.3
11642	7779	27.148743522127	0.2
11642	8017	27.361243046697	0.8
11642	8138	27.455419882664	0.3
11642	8149	27.45843798437	0.3
11642	8228	27.544838938271	0.5
11642	8231	27.548307664454	0.5
11642	8682	27.848407665454	0.3
11642	8982	28.048407665454	0.2
11642	9819	28.748507666454	0.7
11642	10143	29.048507666454	0.3
11642	10634	29.449824197891	0.4
11642	11592	30.371609473025	1.3
11642	11797	30.572303378641	0.8
11642	11835	30.580188762293	0.2
11642	12612	31.288533682126	0.7
11642	12995	31.588533682126	0.3
11642	13453	31.990242937485	0.4
11642	13845	32.283623701308	0.3
11642	14125	32.486537535599	0.2
11642	14231	32.584470398185	0.4
11642	15469	33.789859693085	1.2
11642	16044	34.389859693085	0.6
11642	16238	34.594293504573	0.2
11642	16390	34.721966169061	0.3
11642	16706	35.029248726924	0.3
11642	17031	35.329248726924	0.3
11642	17356	35.639093694183	0.3
11642	17393	35.691124664701	0.3
11642	17754	35.997585502924	0.3
11642	19142	37.097585502924	1.1
11642	19831	37.597685503924	0.5
11642	20910	38.597685503924	1
11642	21186	38.799218686697	0.2
11642	21214	38.836732300961	0.2
11642	22118	39.544326327854	0.7
11642	22226	39.644326327854	0.1
11642	22457	39.848153788317	0.2
11642	22949	40.248664544033	0.3
11642	23252	40.554863882301	0.3
11642	23337	40.653729660229	0.8
11642	23518	40.857006027473	0.3
11642	24106	41.355585580994	0.7
11642	24705	41.856935974903	0.5
11642	25450	42.36513987506	0.5
11642	26230	43.06513987506	0.7
11642	26482	43.267920349959	0.2
11642	26701	43.462102361336	0.2
11642	26991	43.770621292078	0.5
11642	27262	43.99026472189	0.2
11642	27462	44.165364525167	0.7
11642	27991	44.565622084952	0.4
11642	28342	44.865622084952	0.3
11642	28602	45.075984066639	0.2
11642	29412	45.743582783393	0.5
11642	29458	45.776240869961	0.7
11642	29710	45.94839434054	0.2
11642	29853	46.055954336711	0.1
11642	30857	46.965036594549	0.9
11642	31513	47.573867122301	0.6
11642	32344	48.273867122301	0.7
11642	32588	48.481837694461	0.7
11642	33088	48.881937695461	0.4
11642	33490	49.181937695461	0.3