file 1078895 1369933135                                         
version 2
run Stability-106-20130528-00:57:26-21385
attr configname Stability
attr datetime 20130528-00:57:26
attr experiment Stability
attr inifile omnetpp.ini
attr iterationvars $0=1e-4
attr iterationvars2 "$0=1e-4, $repetition=6"
attr measurement $0=1e-4
attr network Network
attr processid 21385
attr repetition 6
attr replication #6
attr resultdir results
attr runnumber 106
attr seedset 106
vector 10378  Network.churner  inGoingSizeSig:vector  ETV
10378	950521 128374 21 138376 20 137.49297112052 4097 0 31 125769 3882487
vector 10309  Network.dyn_peer[9]  lookupHopsSig:vector  ETV
10309	270951 10069 55 137966 20.000001 136.480900739429 331 0 18 1356 8718
vector 10310  Network.dyn_peer[9]  lookupStabilitySig:vector  ETV
10310	281020 11114 55 137966 20.000001 136.480900739429 331 -1.25 1 161.54166665673 128.2725694312
vector 10311  Network.dyn_peer[9]  lookupTimeSig:vector  ETV
10311	292134 10676 55 137966 20.000001 136.480900739429 331 0 1.6 149.7 91.93
vector 10315  Network.dyn_peer[11]  lookupHopsSig:vector  ETV
10315	332197 9318 65 137915 20.0000012 136.445203532357 306 0 21 1265 7985
vector 10316  Network.dyn_peer[11]  lookupStabilitySig:vector  ETV
10316	341515 10319 65 137915 20.0000012 136.445203532357 306 -1.625 1 147.875 114.515625
vector 10317  Network.dyn_peer[11]  lookupTimeSig:vector  ETV
10317	351834 9884 65 137915 20.0000012 136.445203532357 306 0 1.7 140.2 86.48
vector 10321  Network.dyn_peer[13]  lookupHopsSig:vector  ETV
10321	393996 8772 75 136903 20.0000014 135.460545817967 288 0 16 1283 8601
vector 10322  Network.dyn_peer[13]  lookupStabilitySig:vector  ETV
10322	402768 9695 75 136903 20.0000014 135.460545817967 288 -1 1 127.70833331347 101.68923609787
vector 10323  Network.dyn_peer[13]  lookupTimeSig:vector  ETV
10323	412463 9306 75 136903 20.0000014 135.460545817967 288 0 1.5 142.3 93.77
vector 10333  Network.dyn_peer[17]  lookupHopsSig:vector  ETV
10333	514555 8833 91 138294 20.0000018 137.161289450419 290 0 17 1240 8506
vector 10334  Network.dyn_peer[17]  lookupStabilitySig:vector  ETV
10334	523388 9755 91 138294 20.0000018 137.161289450419 290 -1.125 1 135 112.90625
vector 10335  Network.dyn_peer[17]  lookupTimeSig:vector  ETV
10335	533143 9368 91 138294 20.0000018 137.161289450419 290 0 1.5 138.5 91.49
vector 10282  Network.dyn_peer[0]  lookupHopsSig:vector  ETV
10282	6538 8637 139 137163 20.1000001 135.670341627407 284 0 19 1270 8880
vector 10283  Network.dyn_peer[0]  lookupStabilitySig:vector  ETV
10283	15175 9583 139 137163 20.1000001 135.670341627407 284 -1.375 1 125.25 105.25
vector 10284  Network.dyn_peer[0]  lookupTimeSig:vector  ETV
10284	24758 9162 139 137163 20.1000001 135.670341627407 284 0 1.8 140.5 93.89
vector 10285  Network.dyn_peer[1]  lookupHopsSig:vector  ETV
10285	33920 9299 144 136979 20.1000002 135.541478127354 305 0 19 1310 8966
vector 10286  Network.dyn_peer[1]  lookupStabilitySig:vector  ETV
10286	43219 10300 144 136979 20.1000002 135.541478127354 305 -1.375 1 141.25 117.59375
vector 10287  Network.dyn_peer[1]  lookupTimeSig:vector  ETV
10287	53519 9861 144 136979 20.1000002 135.541478127354 305 0 1.9 145.1 97.27
vector 10288  Network.dyn_peer[2]  lookupHopsSig:vector  ETV
10288	63380 9154 149 137266 20.1000003 135.761566683821 301 0 21 1346 9912
vector 10289  Network.dyn_peer[2]  lookupStabilitySig:vector  ETV
10289	72534 10195 149 137266 20.1000003 135.761566683821 301 -1.625 1 132.86111110449 119.54475307612
vector 10290  Network.dyn_peer[2]  lookupTimeSig:vector  ETV
10290	82729 9712 149 137266 20.1000003 135.761566683821 301 0.1 1.9 150.1 106.13
vector 10306  Network.dyn_peer[8]  lookupHopsSig:vector  ETV
10306	241024 9421 159 138130 20.1000009 136.770735553255 310 0 24 1316 8858
vector 10307  Network.dyn_peer[8]  lookupStabilitySig:vector  ETV
10307	250445 10494 159 138130 20.1000009 136.770735553255 310 -2 1 145.61111108959 119.55632713143
vector 10308  Network.dyn_peer[8]  lookupTimeSig:vector  ETV
10308	260939 10012 159 138130 20.1000009 136.770735553255 310 0 2 147.9 97.07
vector 10318  Network.dyn_peer[12]  lookupHopsSig:vector  ETV
10318	361718 10180 167 137918 20.1000013 136.448215474504 335 0 19 1294 8092
vector 10319  Network.dyn_peer[12]  lookupStabilitySig:vector  ETV
10319	371898 11289 167 137918 20.1000013 136.448215474504 335 -1.375 1 173.34722219408 138.03684410968
vector 10320  Network.dyn_peer[12]  lookupTimeSig:vector  ETV
10320	383187 10809 167 137918 20.1000013 136.448215474504 335 0 1.7 147.7 90.95
vector 10324  Network.dyn_peer[14]  lookupHopsSig:vector  ETV
10324	421769 9539 173 137788 20.1000015 136.277217712567 313 0 15 1298 8262
vector 10325  Network.dyn_peer[14]  lookupStabilitySig:vector  ETV
10325	431308 10581 173 137788 20.1000015 136.277217712567 313 -0.875 1 150.81944441795 117.65065584065
vector 10326  Network.dyn_peer[14]  lookupTimeSig:vector  ETV
10326	441889 10138 173 137788 20.1000015 136.277217712567 313 0.1 1.4 145.6 89.3
vector 10330  Network.dyn_peer[16]  lookupHopsSig:vector  ETV
10330	485091 9300 179 137627 20.1000017 136.090415263486 305 0 30 1297 9145
vector 10331  Network.dyn_peer[16]  lookupStabilitySig:vector  ETV
10331	494391 10298 179 137627 20.1000017 136.090415263486 305 -2.75 1 142.875 123.640625
vector 10332  Network.dyn_peer[16]  lookupTimeSig:vector  ETV
10332	504689 9866 179 137627 20.1000017 136.090415263486 305 0 2.7 144 97.06
vector 10336  Network.dyn_peer[18]  lookupHopsSig:vector  ETV
10336	542511 9501 184 138364 20.1000019 137.467979537416 312 0 17 1318 8448
vector 10337  Network.dyn_peer[18]  lookupStabilitySig:vector  ETV
10337	552012 10575 184 138364 20.1000019 137.467979537416 312 -1.125 1 147.43055552244 114.66107250069
vector 10338  Network.dyn_peer[18]  lookupTimeSig:vector  ETV
10338	562587 10082 184 138364 20.1000019 137.467979537416 312 0 1.6 146.9 91.31
vector 10345  Network.dyn_peer[21]  lookupHopsSig:vector  ETV
10345	628010 10337 191 137589 20.1000022 136.069758879049 340 0 19 1302 8076
vector 10346  Network.dyn_peer[21]  lookupStabilitySig:vector  ETV
10346	638347 11517 191 137589 20.1000022 136.069758879049 340 -1.375 1 177.44444440305 140.90586415412
vector 10347  Network.dyn_peer[21]  lookupTimeSig:vector  ETV
10347	649864 10981 191 137589 20.1000022 136.069758879049 340 0 1.7 149 89.68
vector 10348  Network.dyn_peer[22]  lookupHopsSig:vector  ETV
10348	660845 9296 196 138017 20.1000023 136.570635553255 305 0 18 1289 8365
vector 10349  Network.dyn_peer[22]  lookupStabilitySig:vector  ETV
10349	670141 10315 196 138017 20.1000023 136.570635553255 305 -1.25 1 143.98611108959 113.60320213143
vector 10350  Network.dyn_peer[22]  lookupTimeSig:vector  ETV
10350	680456 9868 196 138017 20.1000023 136.570635553255 305 0 1.7 142.1 90.19
vector 10357  Network.dyn_peer[25]  lookupHopsSig:vector  ETV
10357	746095 9603 203 137985 20.1000026 136.536172437606 316 0 15 1189 6873
vector 10358  Network.dyn_peer[25]  lookupStabilitySig:vector  ETV
10358	755698 10644 203 137985 20.1000026 136.536172437606 316 -0.875 1 167.51388885826 126.2806712676
vector 10359  Network.dyn_peer[25]  lookupTimeSig:vector  ETV
10359	766342 10205 203 137985 20.1000026 136.536172437606 316 0 1.5 135.7 78.93
vector 10291  Network.dyn_peer[3]  lookupHopsSig:vector  ETV
10291	92441 9860 222 138255 20.2000004 137.070735553255 323 0 21 1347 9141
vector 10292  Network.dyn_peer[3]  lookupStabilitySig:vector  ETV
10292	102301 10918 222 138255 20.2000004 137.070735553255 323 -1.625 1 154.68055555224 129.16956017967
vector 10293  Network.dyn_peer[3]  lookupTimeSig:vector  ETV
10293	113219 10447 222 138255 20.2000004 137.070735553255 323 0 2 149.4 98.08
vector 10312  Network.dyn_peer[10]  lookupHopsSig:vector  ETV
10312	302810 9263 233 137654 20.2000011 136.1310366426 304 0 23 1235 8251
vector 10313  Network.dyn_peer[10]  lookupStabilitySig:vector  ETV
10313	312073 10282 233 137654 20.2000011 136.1310366426 304 -1.875 1 149.73611109704 124.30883485815
vector 10314  Network.dyn_peer[10]  lookupTimeSig:vector  ETV
10314	322355 9842 233 137654 20.2000011 136.1310366426 304 0 1.9 139 89
vector 10327  Network.dyn_peer[15]  lookupHopsSig:vector  ETV
10327	452027 10427 241 138374 20.2000016 137.484623456453 343 0 18 1265 7213
vector 10328  Network.dyn_peer[15]  lookupStabilitySig:vector  ETV
10328	462454 11559 241 138374 20.2000016 137.484623456453 343 -1.25 1 184.90277777612 139.49556326903
vector 10329  Network.dyn_peer[15]  lookupTimeSig:vector  ETV
10329	474013 11078 241 138374 20.2000016 137.484623456453 343 0 1.7 143 80.2
vector 10342  Network.dyn_peer[20]  lookupHopsSig:vector  ETV
10342	599922 8862 249 137021 20.2000021 135.558993201197 291 0 21 1215 7559
vector 10343  Network.dyn_peer[20]  lookupStabilitySig:vector  ETV
10343	608784 9821 249 137021 20.2000021 135.558993201197 291 -1.625 1 139.23611109704 105.41763116548
vector 10344  Network.dyn_peer[20]  lookupTimeSig:vector  ETV
10344	618605 9405 249 137021 20.2000021 135.558993201197 291 0 1.7 134.6 81.42
vector 10351  Network.dyn_peer[23]  lookupHopsSig:vector  ETV
10351	690324 8917 256 138281 20.2000024 137.142103270968 293 0 22 1358 10040
vector 10352  Network.dyn_peer[23]  lookupStabilitySig:vector  ETV
10352	699241 9890 256 138281 20.2000024 137.142103270968 293 -1.75 1 123.38888885081 110.52816354088
vector 10353  Network.dyn_peer[23]  lookupTimeSig:vector  ETV
10353	709131 9460 256 138281 20.2000024 137.142103270968 293 0 1.8 147.3 102.67
vector 10354  Network.dyn_peer[24]  lookupHopsSig:vector  ETV
10354	718591 8680 261 138332 20.2000025 137.205198908021 285 0 23 1320 9744
vector 10355  Network.dyn_peer[24]  lookupStabilitySig:vector  ETV
10355	727271 9622 261 138332 20.2000025 137.205198908021 285 -1.875 1 120 107.25
vector 10356  Network.dyn_peer[24]  lookupTimeSig:vector  ETV
10356	736893 9202 261 138332 20.2000025 137.205198908021 285 0 1.9 144.5 101.45
vector 10360  Network.dyn_peer[26]  lookupHopsSig:vector  ETV
10360	776547 9122 266 138241 20.2000027 137.058800717499 300 0 23 1275 8215
vector 10361  Network.dyn_peer[26]  lookupStabilitySig:vector  ETV
10361	785669 10126 266 138241 20.2000027 137.058800717499 300 -1.875 1 140.625 109.609375
vector 10362  Network.dyn_peer[26]  lookupTimeSig:vector  ETV
10362	795795 9692 266 138241 20.2000027 137.058800717499 300 0 2.2 143.1 91.79
vector 10363  Network.dyn_peer[27]  lookupHopsSig:vector  ETV
10363	805487 8873 271 138270 20.2000028 137.08885444282 291 0 23 1281 8987
vector 10364  Network.dyn_peer[27]  lookupStabilitySig:vector  ETV
10364	814360 9825 271 138270 20.2000028 137.08885444282 291 -1.875 1 130.98611110449 111.31539350969
vector 10365  Network.dyn_peer[27]  lookupTimeSig:vector  ETV
10365	824185 9411 271 138270 20.2000028 137.08885444282 291 0 2 141.7 94.75
vector 10366  Network.dyn_peer[28]  lookupHopsSig:vector  ETV
10366	833596 9783 276 137857 20.2000029 136.371685668668 321 0 17 1335 8871
vector 10367  Network.dyn_peer[28]  lookupStabilitySig:vector  ETV
10367	843379 10791 276 137857 20.2000029 136.371685668668 321 -1.125 1 154.125 125.859375
vector 10368  Network.dyn_peer[28]  lookupTimeSig:vector  ETV
10368	854170 10379 276 137857 20.2000029 136.371685668668 321 0 1.5 149 95.22
vector 10294  Network.dyn_peer[4]  lookupHopsSig:vector  ETV
10294	123666 10424 296 138202 20.3000005 136.953962339411 342 0 23 1292 8280
vector 10295  Network.dyn_peer[4]  lookupStabilitySig:vector  ETV
10295	134090 11561 296 138202 20.3000005 136.953962339411 342 -1.875 1 180.58333331347 148.42361109787
vector 10296  Network.dyn_peer[4]  lookupTimeSig:vector  ETV
10296	145651 11068 296 138202 20.3000005 136.953962339411 342 0 1.9 146.1 87.77
vector 10297  Network.dyn_peer[5]  lookupHopsSig:vector  ETV
10297	156719 9100 301 137363 20.3000006 135.842911016105 299 0 14 1280 7948
vector 10298  Network.dyn_peer[5]  lookupStabilitySig:vector  ETV
10298	165819 10104 301 137363 20.3000006 135.842911016105 299 -0.75 1 139.04166665673 103.2413194312
vector 10299  Network.dyn_peer[5]  lookupTimeSig:vector  ETV
10299	175923 9662 301 137363 20.3000006 135.842911016105 299 0 1.3 143.4 88.88
vector 10303  Network.dyn_peer[7]  lookupHopsSig:vector  ETV
10303	215093 8180 307 136855 20.3000008 135.441109288331 269 0 27 1256 9518
vector 10304  Network.dyn_peer[7]  lookupStabilitySig:vector  ETV
10304	223273 9080 307 136855 20.3000008 135.441109288331 269 -2.375 1 112.09722220898 103.85744596926
vector 10305  Network.dyn_peer[7]  lookupTimeSig:vector  ETV
10305	232353 8671 307 136855 20.3000008 135.441109288331 269 0 2.4 138.3 98.81
vector 10339  Network.dyn_peer[19]  lookupHopsSig:vector  ETV
10339	572669 8592 322 138146 20.300002 136.780799961019 283 0 25 1301 9417
vector 10340  Network.dyn_peer[19]  lookupStabilitySig:vector  ETV
10340	581261 9556 322 138146 20.300002 136.780799961019 283 -2.125 1 120.43055555224 104.98206017967
vector 10341  Network.dyn_peer[19]  lookupTimeSig:vector  ETV
10341	590817 9105 322 138146 20.300002 136.780799961019 283 0 2.2 144.7 102.39
vector 10300  Network.dyn_peer[6]  lookupHopsSig:vector  ETV
10300	185585 9294 352 137903 20.4000007 136.442911016105 305 0 21 1272 8364
vector 10301  Network.dyn_peer[6]  lookupStabilitySig:vector  ETV
10301	194879 10345 352 137903 20.4000007 136.442911016105 305 -1.625 1 146.11111108214 117.811342565
vector 10302  Network.dyn_peer[6]  lookupTimeSig:vector  ETV
10302	205224 9869 352 137903 20.4000007 136.442911016105 305 0 1.7 142.8 90.26
vector 10369  Network.dyn_peer[29]  lookupHopsSig:vector  ETV
10369	864549 9289 376 137081 20.400003 135.623568633425 305 0 21 1253 8199
vector 10370  Network.dyn_peer[29]  lookupStabilitySig:vector  ETV
10370	873838 10308 376 137081 20.400003 135.623568633425 305 -1.625 1 148.41666665673 119.9131944312
vector 10371  Network.dyn_peer[29]  lookupTimeSig:vector  ETV
10371	884146 9866 376 137081 20.400003 135.623568633425 305 0 1.9 140.8 90.12
vector 10375  Network.dyn_peer[31]  lookupHopsSig:vector  ETV
10375	923426 8552 382 137283 20.4000032 135.770241627407 281 0 23 1221 8433
vector 10376  Network.dyn_peer[31]  lookupStabilitySig:vector  ETV
10376	931978 9466 382 137283 20.4000032 135.770241627407 281 -1.875 1 128.40277777612 107.55806326903
vector 10377  Network.dyn_peer[31]  lookupTimeSig:vector  ETV
10377	941444 9077 382 137283 20.4000032 135.770241627407 281 0 1.9 134.9 89.43
vector 10372  Network.dyn_peer[30]  lookupHopsSig:vector  ETV
10372	894012 9269 425 137189 20.5000031 135.706116249376 304 0 22 1265 8697
vector 10373  Network.dyn_peer[30]  lookupStabilitySig:vector  ETV
10373	903281 10304 425 137189 20.5000031 135.706116249376 304 -1.75 1 146.05555553734 123.75578701938
vector 10374  Network.dyn_peer[30]  lookupTimeSig:vector  ETV
10374	913585 9841 425 137189 20.5000031 135.706116249376 304 0 1.9 141.5 92.33
