version 2
run Stability-132-20130528-00:59:22-21385
attr configname Stability
attr datetime 20130528-00:59:22
attr experiment Stability
attr inifile omnetpp.ini
attr iterationvars $0=1e-7
attr iterationvars2 "$0=1e-7, $repetition=2"
attr measurement $0=1e-7
attr network Network
attr processid 21385
attr repetition 2
attr replication #2
attr resultdir results
attr runnumber 132
attr seedset 132

vector 12900  Network.churner  inGoingSizeSig:vector  ETV
vector 12834  Network.dyn_peer[10]  lookupHopsSig:vector  ETV
vector 12835  Network.dyn_peer[10]  lookupStabilitySig:vector  ETV
vector 12836  Network.dyn_peer[10]  lookupTimeSig:vector  ETV
vector 12852  Network.dyn_peer[16]  lookupHopsSig:vector  ETV
vector 12853  Network.dyn_peer[16]  lookupStabilitySig:vector  ETV
vector 12854  Network.dyn_peer[16]  lookupTimeSig:vector  ETV
vector 12855  Network.dyn_peer[17]  lookupHopsSig:vector  ETV
vector 12856  Network.dyn_peer[17]  lookupStabilitySig:vector  ETV
vector 12857  Network.dyn_peer[17]  lookupTimeSig:vector  ETV
vector 12885  Network.dyn_peer[27]  lookupHopsSig:vector  ETV
vector 12886  Network.dyn_peer[27]  lookupStabilitySig:vector  ETV
vector 12887  Network.dyn_peer[27]  lookupTimeSig:vector  ETV
vector 12888  Network.dyn_peer[28]  lookupHopsSig:vector  ETV
vector 12889  Network.dyn_peer[28]  lookupStabilitySig:vector  ETV
vector 12890  Network.dyn_peer[28]  lookupTimeSig:vector  ETV
vector 12804  Network.dyn_peer[0]  lookupHopsSig:vector  ETV
vector 12805  Network.dyn_peer[0]  lookupStabilitySig:vector  ETV
vector 12806  Network.dyn_peer[0]  lookupTimeSig:vector  ETV
vector 12807  Network.dyn_peer[1]  lookupHopsSig:vector  ETV
vector 12808  Network.dyn_peer[1]  lookupStabilitySig:vector  ETV
vector 12809  Network.dyn_peer[1]  lookupTimeSig:vector  ETV
vector 12810  Network.dyn_peer[2]  lookupHopsSig:vector  ETV
vector 12811  Network.dyn_peer[2]  lookupStabilitySig:vector  ETV
vector 12812  Network.dyn_peer[2]  lookupTimeSig:vector  ETV
vector 12822  Network.dyn_peer[6]  lookupHopsSig:vector  ETV
vector 12823  Network.dyn_peer[6]  lookupStabilitySig:vector  ETV
vector 12824  Network.dyn_peer[6]  lookupTimeSig:vector  ETV
vector 12831  Network.dyn_peer[9]  lookupHopsSig:vector  ETV
vector 12832  Network.dyn_peer[9]  lookupStabilitySig:vector  ETV
vector 12833  Network.dyn_peer[9]  lookupTimeSig:vector  ETV
vector 12840  Network.dyn_peer[12]  lookupHopsSig:vector  ETV
vector 12841  Network.dyn_peer[12]  lookupStabilitySig:vector  ETV
vector 12842  Network.dyn_peer[12]  lookupTimeSig:vector  ETV
vector 12873  Network.dyn_peer[23]  lookupHopsSig:vector  ETV
vector 12874  Network.dyn_peer[23]  lookupStabilitySig:vector  ETV
vector 12875  Network.dyn_peer[23]  lookupTimeSig:vector  ETV
vector 12876  Network.dyn_peer[24]  lookupHopsSig:vector  ETV
vector 12877  Network.dyn_peer[24]  lookupStabilitySig:vector  ETV
vector 12878  Network.dyn_peer[24]  lookupTimeSig:vector  ETV
vector 12882  Network.dyn_peer[26]  lookupHopsSig:vector  ETV
vector 12883  Network.dyn_peer[26]  lookupStabilitySig:vector  ETV
vector 12884  Network.dyn_peer[26]  lookupTimeSig:vector  ETV
vector 12813  Network.dyn_peer[3]  lookupHopsSig:vector  ETV
vector 12814  Network.dyn_peer[3]  lookupStabilitySig:vector  ETV
vector 12815  Network.dyn_peer[3]  lookupTimeSig:vector  ETV
vector 12816  Network.dyn_peer[4]  lookupHopsSig:vector  ETV
vector 12817  Network.dyn_peer[4]  lookupStabilitySig:vector  ETV
vector 12818  Network.dyn_peer[4]  lookupTimeSig:vector  ETV
vector 12819  Network.dyn_peer[5]  lookupHopsSig:vector  ETV
vector 12820  Network.dyn_peer[5]  lookupStabilitySig:vector  ETV
vector 12821  Network.dyn_peer[5]  lookupTimeSig:vector  ETV
vector 12843  Network.dyn_peer[13]  lookupHopsSig:vector  ETV
vector 12844  Network.dyn_peer[13]  lookupStabilitySig:vector  ETV
vector 12845  Network.dyn_peer[13]  lookupTimeSig:vector  ETV
vector 12846  Network.dyn_peer[14]  lookupHopsSig:vector  ETV
vector 12847  Network.dyn_peer[14]  lookupStabilitySig:vector  ETV
vector 12848  Network.dyn_peer[14]  lookupTimeSig:vector  ETV
vector 12870  Network.dyn_peer[22]  lookupHopsSig:vector  ETV
vector 12871  Network.dyn_peer[22]  lookupStabilitySig:vector  ETV
vector 12872  Network.dyn_peer[22]  lookupTimeSig:vector  ETV
vector 12897  Network.dyn_peer[31]  lookupHopsSig:vector  ETV
vector 12898  Network.dyn_peer[31]  lookupStabilitySig:vector  ETV
vector 12899  Network.dyn_peer[31]  lookupTimeSig:vector  ETV
vector 12825  Network.dyn_peer[7]  lookupHopsSig:vector  ETV
vector 12826  Network.dyn_peer[7]  lookupStabilitySig:vector  ETV
vector 12827  Network.dyn_peer[7]  lookupTimeSig:vector  ETV
vector 12828  Network.dyn_peer[8]  lookupHopsSig:vector  ETV
vector 12829  Network.dyn_peer[8]  lookupStabilitySig:vector  ETV
vector 12830  Network.dyn_peer[8]  lookupTimeSig:vector  ETV
vector 12837  Network.dyn_peer[11]  lookupHopsSig:vector  ETV
vector 12838  Network.dyn_peer[11]  lookupStabilitySig:vector  ETV
vector 12839  Network.dyn_peer[11]  lookupTimeSig:vector  ETV
vector 12861  Network.dyn_peer[19]  lookupHopsSig:vector  ETV
vector 12862  Network.dyn_peer[19]  lookupStabilitySig:vector  ETV
vector 12863  Network.dyn_peer[19]  lookupTimeSig:vector  ETV
vector 12864  Network.dyn_peer[20]  lookupHopsSig:vector  ETV
vector 12865  Network.dyn_peer[20]  lookupStabilitySig:vector  ETV
vector 12866  Network.dyn_peer[20]  lookupTimeSig:vector  ETV
vector 12867  Network.dyn_peer[21]  lookupHopsSig:vector  ETV
vector 12868  Network.dyn_peer[21]  lookupStabilitySig:vector  ETV
vector 12869  Network.dyn_peer[21]  lookupTimeSig:vector  ETV
vector 12879  Network.dyn_peer[25]  lookupHopsSig:vector  ETV
vector 12880  Network.dyn_peer[25]  lookupStabilitySig:vector  ETV
vector 12881  Network.dyn_peer[25]  lookupTimeSig:vector  ETV
vector 12891  Network.dyn_peer[29]  lookupHopsSig:vector  ETV
vector 12892  Network.dyn_peer[29]  lookupStabilitySig:vector  ETV
vector 12893  Network.dyn_peer[29]  lookupTimeSig:vector  ETV
vector 12849  Network.dyn_peer[15]  lookupHopsSig:vector  ETV
vector 12850  Network.dyn_peer[15]  lookupStabilitySig:vector  ETV
vector 12851  Network.dyn_peer[15]  lookupTimeSig:vector  ETV
vector 12858  Network.dyn_peer[18]  lookupHopsSig:vector  ETV
vector 12859  Network.dyn_peer[18]  lookupStabilitySig:vector  ETV
vector 12860  Network.dyn_peer[18]  lookupTimeSig:vector  ETV
vector 12894  Network.dyn_peer[30]  lookupHopsSig:vector  ETV
vector 12895  Network.dyn_peer[30]  lookupStabilitySig:vector  ETV
vector 12896  Network.dyn_peer[30]  lookupTimeSig:vector  ETV
12804	149	20.1000000001	1
12804	400	20.5000000001	3
12804	1200	21.404761300621	6
12804	1408	21.539714745979	5
12804	1429	21.602892925026	5
12804	1471	21.609349636575	11
12804	1709	21.806306743001	3
12804	2009	22.013529174233	1
12804	2035	22.016036820919	1
12804	3446	23.116136821019	13
12804	3939	23.516136821019	3
12804	4497	24.021245203839	4
12804	4983	24.421345203939	4
12804	5222	24.621345203939	1
12804	6569	25.739133598198	10
12804	6933	26.039133598198	2
12804	7312	26.340262556454	2
12804	7994	26.849009659323	2
12804	8104	26.944710009478	5
12804	8236	27.054796776522	2
12804	9263	27.864128789665	9
12804	10144	28.664128789665	7
12804	11353	29.671783983046	11
12804	11977	30.171783983046	4
12804	12235	30.379964377747	1
12804	13091	31.180064377847	8
12804	13352	31.480064377847	2
12804	14165	32.187190841056	7
12804	14182	32.187290841156	0
12804	14649	32.587290841156	3
12804	15024	32.89545595015	2
12804	15753	33.507720512606	6
12804	15805	33.524436367461	4
12804	16008	33.7221850815	1
12804	16149	33.8222850816	2
12804	16636	34.142815222803	1
12804	16866	34.346379256704	2
12804	17188	34.652970995697	2
12804	17981	35.326994245886	8
12804	18224	35.534739805646	1
12804	19070	36.237375701732	7
12804	19577	36.637375701732	3
12804	21722	38.446687500845	20
12804	22746	39.246687500845	8
12804	23125	39.547633928819	2
12804	24041	40.252671593429	7
12804	24044	40.253824401586	7
12804	24830	40.858776321678	5
12804	24833	40.85982782197	5
12804	25448	41.46190064248	5
12804	25451	41.467163568828	5
12804	25855	41.769863837031	2
12804	25872	41.773936435335	2
12804	25882	41.77624156914	2
12804	26045	41.87953983701	2
12804	26705	42.382079482796	3
12804	27340	42.882079482796	4
12804	28239	43.585739341082	7
12804	28543	43.890209863939	2
12804	28943	44.292821193184	4
12804	29213	44.592821193184	2
12804	29753	45.096921466356	4
12804	30615	45.805147656271	6
12804	31492	46.410528526584	5
12804	31677	46.52160425257	4
12804	31905	46.723847318122	1
12804	31911	46.727829732446	13
12804	32412	47.229363138224	5
12804	33071	47.829363138224	6
12804	33141	47.912611752401	4
12804	33695	48.332372742476	5
12804	33769	48.419834303077	4
12804	34210	48.72620450368	3
12804	34235	48.736381657378	3
12804	34416	48.914984424795	3
12804	34596	49.051391189319	2
12804	35595	49.851583378898	11
12804	36044	50.251583378898	3
12804	36242	50.451659972028	2
12804	36683	50.957130969022	4
12804	36696	50.96803347443	4
12804	37860	52.075177975985	11
12804	39123	53.046201429416	8
12804	39519	53.346201429416	2
12804	39792	53.551973407575	2
12804	40669	54.197613705633	2
12804	41085	54.497613705633	2
12804	41815	55.100294028747	5
12804	41950	55.205435682049	0
12804	42297	55.511722645042	2
12804	42581	55.716086522776	3
12804	42883	55.971171344328	3
12804	43394	56.379122783949	4
12804	44164	57.065498955908	5
12804	44945	57.665498955908	5
12804	45220	57.86829046226	1
12804	45256	57.914795050029	1
12804	46187	58.71889440738	8
12804	47491	59.81889440738	11
12804	47774	60.02768715747	1
12804	48260	60.435252174295	4
12804	48536	60.65605609404	1
12804	48613	60.739599551255	7
12804	48770	60.863519578162	1
12804	48777	60.870518007452	1
12804	49035	61.079066843645	3
12804	49526	61.579066843645	4
12804	50972	62.59686797457	12
12804	51669	63.20423177364	5
12804	51887	63.419324029461	2
12804	52198	63.706450820688	4
12804	52790	64.208841274656	9
12804	52817	64.21277054266	4
12804	52935	64.327890106332	12
12804	53194	64.534578242366	2
12804	53919	65.134578242366	5
12804	54539	65.541211521751	3
12804	55059	65.974303340902	6
12804	55675	66.384227657818	4
12804	55751	66.448606036831	8
12804	55963	66.588593445081	1
12804	56163	66.757809754402	3
12804	56492	66.964296992378	2
12804	57119	67.464296992378	4
12804	57368	67.666234133326	1
12804	57805	67.979587046121	3
12804	58196	68.281869785141	2
12804	59531	69.487757214303	15
12804	60438	70.361150998325	3
12804	60834	70.668700581356	2
12804	61301	70.992360539411	1
12804	61694	71.292360539411	2
12804	62509	71.998622057524	6
12804	63366	72.606292402991	5
12804	63411	72.664207358548	5
12804	63941	73.11442508182	5
12804	64111	73.266351377287	5
12804	64126	73.273356406514	5
12804	64730	73.779446323024	5
12804	65107	74.079446323024	3
12804	65707	74.585794298948	4
12804	66669	75.489251180988	10
12804	67264	75.989251180988	4
12804	67500	76.155281067897	1
12804	67679	76.255381067997	1
12804	68131	76.555381067997	3
12804	69813	77.960839570631	13
12804	70650	78.565731582525	7
12804	70950	78.766640719927	1
12804	71645	79.3672797	5
12804	71951	79.636772713137	1
12804	72027	79.674079166512	3
12804	72201	79.840561146616	5
12804	72328	79.940479428455	2
12804	73020	80.444416866198	5
12804	73584	80.84870742701	3
12804	74605	81.655861572013	9
12804	76168	83.155861572013	14
12804	77002	83.858192446005	8
12804	77583	84.217271138131	6
12804	77622	84.254577911268	8
12804	77731	84.326571906492	3
12804	77782	84.361259035306	6
12804	78431	84.870278359016	5
12804	78816	85.279577065936	3
12804	78991	85.481929698082	1
12804	80102	86.282029698182	9
12804	80712	86.782029698182	4
12804	81090	87.18446083593	3
12804	81136	87.234781233361	3
12804	81316	87.434881233461	1
12804	81329	87.443566989123	1
12804	81566	87.698202621741	5
12804	81569	87.698417489181	5
12804	81752	87.851144626857	3
12804	81778	87.881261050645	2
12804	81957	88.04119147194	5
12804	82251	88.242736054089	2
12804	83133	88.98818592052	4
12804	84363	89.98818592052	10
12804	84378	89.98828592062	0
12804	84619	90.18828592062	1
12804	84895	90.390133284283	2
12804	85172	90.591281671069	2
12804	85357	90.792902267627	1
12804	86145	91.495566573186	6
12804	86389	91.698989791712	2
12804	86718	91.998989791712	2
12804	86960	92.207419405793	1
12804	87497	92.614062408953	3
12804	88072	93.114192795144	4
12804	89276	94.119503194424	10
12804	89572	94.319503194424	1
12804	89993	94.619603194524	4
12804	90674	95.119603194524	5
12804	90933	95.319703194624	2
12804	92225	96.565277845505	2
12804	92604	96.870182716773	2
12804	92610	96.870546974692	2
12804	92681	96.919703194624	19
12804	93307	97.429414550395	5
12804	94006	97.929414550395	4
12804	95009	98.639019599147	6
12804	96362	99.74404940576	10
12804	96498	99.845854256622	0
12804	96852	100.1501440812	2
12804	96874	100.188580531504	14
12804	97047	100.297679479934	1
12804	97523	100.697679479934	3
12804	97903	101.005360822821	2
12804	98489	101.5108624057	3
12804	99063	102.1108624057	5
12804	99311	102.319098582688	1
12804	100097	103.019591585955	7
12804	100577	103.419591585955	3
12804	101277	104.035260581943	4
12804	101496	104.226091167534	7
12804	101641	104.311541796899	7
12804	102507	104.911641796999	7
12804	102801	105.111641796999	1
12804	103953	105.920735818663	5
12804	104320	106.220735818663	2
12804	104532	106.442765718612	1
12804	106030	107.671341449723	13
12804	107276	108.577595026865	11
12804	107926	109.077595026865	5
12804	108384	109.483820918604	3
12804	108754	109.790021840311	3
12804	109626	110.590021840311	7
12804	110219	110.990121840411	5
12804	110454	111.190121840411	1
12804	111123	111.892598236973	6
12804	111397	112.20081244323	2
12804	111833	112.609673879077	3
12804	112033	112.815488023066	1
12804	112192	112.922177853389	3
12804	112195	112.922492695955	5
12804	112412	113.126565705128	1
12804	112428	113.130356832769	1
12804	112638	113.334003810586	1
12804	112641	113.339980964959	1
12804	113277	113.940134105999	7
12804	113480	114.140134105999	1
12804	115208	115.555268026008	13
12804	115603	115.759783432744	1
12804	115927	115.962014386583	2
12804	116648	116.462014386583	4
12804	117943	117.368069185178	9
12804	118216	117.572682716137	1
12804	118512	117.778253974717	1
12804	118737	117.968986076126	9
12804	119002	118.169910913724	2
12804	119688	118.769910913724	5
12804	120319	119.479331077017	6
12804	120850	119.981808174779	4
12804	121208	120.291472399756	2
12804	121362	120.398383460593	1
12804	121517	120.498383460593	0
12804	121791	120.69990379951	1
12804	122430	121.108128189781	4
12804	122690	121.313066587218	1
12804	123350	121.913166587318	6
12804	124239	122.613166587318	6
12804	124750	123.032236041512	2
12804	124850	123.117774797081	5
12804	125339	123.434642654959	3
12804	125767	123.749052076256	2
12804	125786	123.798111176877	4
12804	126676	124.40545144515	7
12804	126924	124.60545144515	1
12804	127287	124.907509813787	2
12804	128481	125.807609813887	10
12804	129314	126.507609813887	6
12804	130066	127.110668133686	5
12804	130089	127.126317175078	4
12804	130360	127.335049517211	1
12804	131721	128.335149517311	10
12804	133036	129.358967725481	5
12804	133546	129.758967725481	3
12804	133788	129.961118031928	2
12804	134315	130.440682989865	5
12804	134383	130.462882068074	4
12804	134458	130.553225268479	4
12804	134745	130.762463774312	2
12804	135057	131.063037133241	2
12804	135645	131.465249321852	4
12804	136401	132.065249321852	6
12804	136651	132.371232456502	2
12804	136900	132.987043906032	6
12804	136918	133.203543733365	1
12805	149	20.1000000001	0.875
12805	400	20.5000000001	0.625
12805	1200	21.404761300621	0.25
12805	1408	21.539714745979	0.375
12805	1429	21.602892925026	0.375
12805	1471	21.609349636575	-0.375
12805	1709	21.806306743001	0.625
12805	2009	22.013529174233	0.875
12805	2035	22.016036820919	0.875
12805	3446	23.116136821019	-0.625
12805	3939	23.516136821019	0.625
12805	4497	24.021245203839	0.5
12805	4983	24.421345203939	0.5
12805	5222	24.621345203939	0.875
12805	6569	25.739133598198	-0.25
12805	6933	26.039133598198	0.75
12805	7312	26.340262556454	0.75
12805	7994	26.849009659323	0.75
12805	8104	26.944710009478	0.375
12805	8236	27.054796776522	0.75
12805	9263	27.864128789665	-0.125
12805	10144	28.664128789665	0.125
12805	11353	29.671783983046	-0.375
12805	11977	30.171783983046	0.5
12805	12235	30.379964377747	0.875
12805	13091	31.180064377847	0
12805	13352	31.480064377847	0.75
12805	14165	32.187190841056	0.125
12805	14182	32.187290841156	1
12805	14649	32.587290841156	0.625
12805	15024	32.89545595015	0.75
12805	15753	33.507720512606	0.25
12805	15805	33.524436367461	0.5
12805	16008	33.7221850815	0.875
12805	16149	33.8222850816	0.75
12805	16636	34.142815222803	0.875
12805	16866	34.346379256704	0.75
12805	17188	34.652970995697	0.75
12805	17981	35.326994245886	0
12805	18224	35.534739805646	0.875
12805	19070	36.237375701732	0.125
12805	19577	36.637375701732	0.625
12805	21722	38.446687500845	-1.5
12805	22746	39.246687500845	0
12805	23125	39.547633928819	0.75
12805	24041	40.252671593429	0.125
12805	24044	40.253824401586	0.125
12805	24830	40.858776321678	0.375
12805	24833	40.85982782197	0.375
12805	25448	41.46190064248	0.375
12805	25451	41.467163568828	0.375
12805	25855	41.769863837031	0.75
12805	25872	41.773936435335	0.75
12805	25882	41.77624156914	0.75
12805	26045	41.87953983701	0.75
12805	26705	42.382079482796	0.625
12805	27340	42.882079482796	0.5
12805	28239	43.585739341082	0.125
12805	28543	43.890209863939	0.75
12805	28943	44.292821193184	0.5
12805	29213	44.592821193184	0.75
12805	29753	45.096921466356	0.5
12805	30615	45.805147656271	0.25
12805	31492	46.410528526584	0.375
12805	31677	46.52160425257	0.5
12805	31905	46.723847318122	0.875
12805	31911	46.727829732446	-0.625
12805	32412	47.229363138224	0.375
12805	33071	47.829363138224	0.25
12805	33141	47.912611752401	0.5
12805	33695	48.332372742476	0.375
12805	33769	48.419834303077	0.5
12805	34210	48.72620450368	0.625
12805	34235	48.736381657378	0.625
12805	34416	48.914984424795	0.625
12805	34596	49.051391189319	0.75
12805	35595	49.851583378898	-0.375
12805	36044	50.251583378898	0.625
12805	36242	50.451659972028	0.75
12805	36683	50.957130969022	0.5
12805	36696	50.96803347443	0.5
12805	37860	52.075177975985	-0.375
12805	39123	53.046201429416	0
12805	39519	53.346201429416	0.75
12805	39792	53.551973407575	0.75
12805	40669	54.197613705633	0.75
12805	41085	54.497613705633	0.75
12805	41815	55.100294028747	0.375
12805	41950	55.205435682049	1
12805	42297	55.511722645042	0.75
12805	42581	55.716086522776	0.625
12805	42883	55.971171344328	0.625
12805	43394	56.379122783949	0.5
12805	44164	57.065498955908	0.375
12805	44945	57.665498955908	0.375
12805	45220	57.86829046226	0.875
12805	45256	57.914795050029	0.875
12805	46187	58.71889440738	0
12805	47491	59.81889440738	-0.375
12805	47774	60.02768715747	0.875
12805	48260	60.435252174295	0.5
12805	48536	60.65605609404	0.875
12805	48613	60.739599551255	0.125
12805	48770	60.863519578162	0.875
12805	48777	60.870518007452	0.875
12805	49035	61.079066843645	0.625
12805	49526	61.579066843645	0.5
12805	50972	62.59686797457	-0.5
12805	51669	63.20423177364	0.375
12805	51887	63.419324029461	0.75
12805	52198	63.706450820688	0.5
12805	52790	64.208841274656	-0.125
12805	52817	64.21277054266	0.5
12805	52935	64.327890106332	-0.5
12805	53194	64.534578242366	0.75
12805	53919	65.134578242366	0.375
12805	54539	65.541211521751	0.625
12805	55059	65.974303340902	0.25
12805	55675	66.384227657818	0.5
12805	55751	66.448606036831	0
12805	55963	66.588593445081	0.875
12805	56163	66.757809754402	0.625
12805	56492	66.964296992378	0.75
12805	57119	67.464296992378	0.5
12805	57368	67.666234133326	0.875
12805	57805	67.979587046121	0.625
12805	58196	68.281869785141	0.75
12805	59531	69.487757214303	-0.875
12805	60438	70.361150998325	0.625
12805	60834	70.668700581356	0.75
12805	61301	70.992360539411	0.875
12805	61694	71.292360539411	0.75
12805	62509	71.998622057524	0.25
12805	63366	72.606292402991	0.375
12805	63411	72.664207358548	0.375
12805	63941	73.11442508182	0.375
12805	64111	73.266351377287	0.375
12805	64126	73.273356406514	0.375
12805	64730	73.779446323024	0.375
12805	65107	74.079446323024	0.625
12805	65707	74.585794298948	0.5
12805	66669	75.489251180988	-0.25
12805	67264	75.989251180988	0.5
12805	67500	76.155281067897	0.875
12805	67679	76.255381067997	0.875
12805	68131	76.555381067997	0.625
12805	69813	77.960839570631	-0.625
12805	70650	78.565731582525	0.125
12805	70950	78.766640719927	0.875
12805	71645	79.3672797	0.375
12805	71951	79.636772713137	0.875
12805	72027	79.674079166512	0.625
12805	72201	79.840561146616	0.375
12805	72328	79.940479428455	0.75
12805	73020	80.444416866198	0.375
12805	73584	80.84870742701	0.625
12805	74605	81.655861572013	-0.125
12805	76168	83.155861572013	-0.75
12805	77002	83.858192446005	0
12805	77583	84.217271138131	0.25
12805	77622	84.254577911268	0
12805	77731	84.326571906492	0.625
12805	77782	84.361259035306	0.25
12805	78431	84.870278359016	0.375
12805	78816	85.279577065936	0.625
12805	78991	85.481929698082	0.875
12805	80102	86.282029698182	-0.125
12805	80712	86.782029698182	0.5
12805	81090	87.18446083593	0.625
12805	81136	87.234781233361	0.625
12805	81316	87.434881233461	0.875
12805	81329	87.443566989123	0.875
12805	81566	87.698202621741	0.375
12805	81569	87.698417489181	0.375
12805	81752	87.851144626857	0.625
12805	81778	87.881261050645	0.75
12805	81957	88.04119147194	0.375
12805	82251	88.242736054089	0.75
12805	83133	88.98818592052	0.5
12805	84363	89.98818592052	-0.25
12805	84378	89.98828592062	1
12805	84619	90.18828592062	0.875
12805	84895	90.390133284283	0.75
12805	85172	90.591281671069	0.75
12805	85357	90.792902267627	0.875
12805	86145	91.495566573186	0.25
12805	86389	91.698989791712	0.75
12805	86718	91.998989791712	0.75
12805	86960	92.207419405793	0.875
12805	87497	92.614062408953	0.625
12805	88072	93.114192795144	0.5
12805	89276	94.119503194424	-0.25
12805	89572	94.319503194424	0.875
12805	89993	94.619603194524	0.5
12805	90674	95.119603194524	0.375
12805	90933	95.319703194624	0.75
12805	92225	96.565277845505	0.75
12805	92604	96.870182716773	0.75
12805	92610	96.870546974692	0.75
12805	92681	96.919703194624	-1.375
12805	93307	97.429414550395	0.375
12805	94006	97.929414550395	0.5
12805	95009	98.639019599147	0.25
12805	96362	99.74404940576	-0.25
12805	96498	99.845854256622	1
12805	96852	100.1501440812	0.75
12805	96874	100.188580531504	-0.75
12805	97047	100.297679479934	0.875
12805	97523	100.697679479934	0.625
12805	97903	101.005360822821	0.75
12805	98489	101.5108624057	0.625
12805	99063	102.1108624057	0.375
12805	99311	102.319098582688	0.875
12805	100097	103.019591585955	0.125
12805	100577	103.419591585955	0.625
12805	101277	104.035260581943	0.5
12805	101496	104.226091167534	0.125
12805	101641	104.311541796899	0.125
12805	102507	104.911641796999	0.125
12805	102801	105.111641796999	0.875
12805	103953	105.920735818663	0.375
12805	104320	106.220735818663	0.75
12805	104532	106.442765718612	0.875
12805	106030	107.671341449723	-0.625
12805	107276	108.577595026865	-0.375
12805	107926	109.077595026865	0.375
12805	108384	109.483820918604	0.625
12805	108754	109.790021840311	0.625
12805	109626	110.590021840311	0.125
12805	110219	110.990121840411	0.375
12805	110454	111.190121840411	0.875
12805	111123	111.892598236973	0.25
12805	111397	112.20081244323	0.75
12805	111833	112.609673879077	0.625
12805	112033	112.815488023066	0.875
12805	112192	112.922177853389	0.625
12805	112195	112.922492695955	0.375
12805	112412	113.126565705128	0.875
12805	112428	113.130356832769	0.875
12805	112638	113.334003810586	0.875
12805	112641	113.339980964959	0.875
12805	113277	113.940134105999	0.125
12805	113480	114.140134105999	0.875
12805	115208	115.555268026008	-0.625
12805	115603	115.759783432744	0.875
12805	115927	115.962014386583	0.75
12805	116648	116.462014386583	0.5
12805	117943	117.368069185178	-0.125
12805	118216	117.572682716137	0.875
12805	118512	117.778253974717	0.875
12805	118737	117.968986076126	-0.125
12805	119002	118.169910913724	0.75
12805	119688	118.769910913724	0.375
12805	120319	119.479331077017	0.25
12805	120850	119.981808174779	0.5
12805	121208	120.291472399756	0.75
12805	121362	120.398383460593	0.875
12805	121517	120.498383460593	1
12805	121791	120.69990379951	0.875
12805	122430	121.108128189781	0.5
12805	122690	121.313066587218	0.875
12805	123350	121.913166587318	0.25
12805	124239	122.613166587318	0.25
12805	124750	123.032236041512	0.75
12805	124850	123.117774797081	0.375
12805	125339	123.434642654959	0.625
12805	125767	123.749052076256	0.75
12805	125786	123.798111176877	0.5
12805	126676	124.40545144515	0.125
12805	126924	124.60545144515	0.875
12805	127287	124.907509813787	0.75
12805	128481	125.807609813887	-0.25
12805	129314	126.507609813887	0.25
12805	130066	127.110668133686	0.375
12805	130089	127.126317175078	0.5
12805	130360	127.335049517211	0.875
12805	131721	128.335149517311	-0.25
12805	133036	129.358967725481	0.375
12805	133546	129.758967725481	0.625
12805	133788	129.961118031928	0.75
12805	134315	130.440682989865	0.375
12805	134383	130.462882068074	0.5
12805	134458	130.553225268479	0.5
12805	134745	130.762463774312	0.75
12805	135057	131.063037133241	0.75
12805	135645	131.465249321852	0.5
12805	136401	132.065249321852	0.25
12805	136651	132.371232456502	0.75
12805	136900	132.987043906032	0.25
12805	136918	133.203543733365	0.875
12806	149	20.1000000001	0.1
12806	400	20.5000000001	0.4
12806	1200	21.404761300621	0.6
12806	1408	21.539714745979	0.6
12806	1429	21.602892925026	0.6
12806	1471	21.609349636575	1.1
12806	1709	21.806306743001	0.4
12806	2009	22.013529174233	0.2
12806	2035	22.016036820919	0.2
12806	3446	23.116136821019	1.1
12806	3939	23.516136821019	0.4
12806	4497	24.021245203839	0.5
12806	4983	24.421345203939	0.4
12806	5222	24.621345203939	0.2
12806	6569	25.739133598198	0.9
12806	6933	26.039133598198	0.3
12806	7312	26.340262556454	0.3
12806	7994	26.849009659323	0.3
12806	8104	26.944710009478	0.6
12806	8236	27.054796776522	0.2
12806	9263	27.864128789665	0.8
12806	10144	28.664128789665	0.8
12806	11353	29.671783983046	1
12806	11977	30.171783983046	0.5
12806	12235	30.379964377747	0.2
12806	13091	31.180064377847	0.8
12806	13352	31.480064377847	0.3
12806	14165	32.187190841056	0.7
12806	14182	32.187290841156	0
12806	14649	32.587290841156	0.4
12806	15024	32.89545595015	0.3
12806	15753	33.507720512606	0.6
12806	15805	33.524436367461	0.5
12806	16008	33.7221850815	0.2
12806	16149	33.8222850816	0.1
12806	16636	34.142815222803	0.2
12806	16866	34.346379256704	0.2
12806	17188	34.652970995697	0.3
12806	17981	35.326994245886	0.7
12806	18224	35.534739805646	0.2
12806	19070	36.237375701732	0.7
12806	19577	36.637375701732	0.4
12806	21722	38.446687500845	1.8
12806	22746	39.246687500845	0.8
12806	23125	39.547633928819	0.3
12806	24041	40.252671593429	0.7
12806	24044	40.253824401586	0.7
12806	24830	40.858776321678	0.6
12806	24833	40.85982782197	0.6
12806	25448	41.46190064248	0.6
12806	25451	41.467163568828	0.6
12806	25855	41.769863837031	0.3
12806	25872	41.773936435335	0.3
12806	25882	41.77624156914	0.3
12806	26045	41.87953983701	0.1
12806	26705	42.382079482796	0.3
12806	27340	42.882079482796	0.5
12806	28239	43.585739341082	0.7
12806	28543	43.890209863939	0.3
12806	28943	44.292821193184	0.4
12806	29213	44.592821193184	0.3
12806	29753	45.096921466356	0.5
12806	30615	45.805147656271	0.7
12806	31492	46.410528526584	0.6
12806	31677	46.52160425257	0.4
12806	31905	46.723847318122	0.2
12806	31911	46.727829732446	1.3
12806	32412	47.229363138224	0.5
12806	33071	47.829363138224	0.6
12806	33141	47.912611752401	0.5
12806	33695	48.332372742476	0.5
12806	33769	48.419834303077	0.5
12806	34210	48.72620450368	0.3
12806	34235	48.736381657378	0.4
12806	34416	48.914984424795	0.4
12806	34596	49.051391189319	0.3
12806	35595	49.851583378898	0.8
12806	36044	50.251583378898	0.4
12806	36242	50.451659972028	0.2
12806	36683	50.957130969022	0.5
12806	36696	50.96803347443	0.5
12806	37860	52.075177975985	1.1
12806	39123	53.046201429416	0.8
12806	39519	53.346201429416	0.3
12806	39792	53.551973407575	0.2
12806	40669	54.197613705633	0.2
12806	41085	54.497613705633	0.3
12806	41815	55.100294028747	0.6
12806	41950	55.205435682049	0.1
12806	42297	55.511722645042	0.3
12806	42581	55.716086522776	0.4
12806	42883	55.971171344328	0.4
12806	43394	56.379122783949	0.4
12806	44164	57.065498955908	0.4
12806	44945	57.665498955908	0.6
12806	45220	57.86829046226	0.2
12806	45256	57.914795050029	0.2
12806	46187	58.71889440738	0.8
12806	47491	59.81889440738	1.1
12806	47774	60.02768715747	0.2
12806	48260	60.435252174295	0.5
12806	48536	60.65605609404	0.2
12806	48613	60.739599551255	0.7
12806	48770	60.863519578162	0.2
12806	48777	60.870518007452	0.2
12806	49035	61.079066843645	0.2
12806	49526	61.579066843645	0.5
12806	50972	62.59686797457	1
12806	51669	63.20423177364	0.6
12806	51887	63.419324029461	0.3
12806	52198	63.706450820688	0.5
12806	52790	64.208841274656	0.8
12806	52817	64.21277054266	0.5
12806	52935	64.327890106332	0.9
12806	53194	64.534578242366	0.2
12806	53919	65.134578242366	0.6
12806	54539	65.541211521751	0.4
12806	55059	65.974303340902	0.7
12806	55675	66.384227657818	0.4
12806	55751	66.448606036831	0.9
12806	55963	66.588593445081	0.2
12806	56163	66.757809754402	0.3
12806	56492	66.964296992378	0.2
12806	57119	67.464296992378	0.5
12806	57368	67.666234133326	0.2
12806	57805	67.979587046121	0.4
12806	58196	68.281869785141	0.3
12806	59531	69.487757214303	1.2
12806	60438	70.361150998325	0.3
12806	60834	70.668700581356	0.3
12806	61301	70.992360539411	0.1
12806	61694	71.292360539411	0.3
12806	62509	71.998622057524	0.7
12806	63366	72.606292402991	0.6
12806	63411	72.664207358548	0.5
12806	63941	73.11442508182	0.5
12806	64111	73.266351377287	0.6
12806	64126	73.273356406514	0.6
12806	64730	73.779446323024	0.5
12806	65107	74.079446323024	0.3
12806	65707	74.585794298948	0.5
12806	66669	75.489251180988	0.9
12806	67264	75.989251180988	0.5
12806	67500	76.155281067897	0.2
12806	67679	76.255381067997	0.1
12806	68131	76.555381067997	0.3
12806	69813	77.960839570631	1.4
12806	70650	78.565731582525	0.6
12806	70950	78.766640719927	0.2
12806	71645	79.3672797	0.6
12806	71951	79.636772713137	0.2
12806	72027	79.674079166512	0.3
12806	72201	79.840561146616	0.6
12806	72328	79.940479428455	0.3