file 1015459 1369933138                                         
version 2
run Stability-67-20130528-00:54:31-21385
attr configname Stability
attr datetime 20130528-00:54:31
attr experiment Stability
attr inifile omnetpp.ini
attr iterationvars $0=1e0
attr iterationvars2 "$0=1e0, $repetition=7"
attr measurement $0=1e0
attr network Network
attr processid 21385
attr repetition 7
attr replication #7
attr resultdir results
attr runnumber 67
attr seedset 67
vector 6595  Network.churner  inGoingSizeSig:vector  ETV
6595	891392 124067 22 136650 20 135.451247358884 4097 0 31 125472 3864432
vector 6502  Network.dyn_peer[1]  lookupHopsSig:vector  ETV
6502	33814 8646 32 135416 20.002 133.730033233486 296 0 21 1215 7633
vector 6503  Network.dyn_peer[1]  lookupStabilitySig:vector  ETV
6503	42460 9625 32 135416 20.002 133.730033233486 296 -1.625 1 144.16666666418 111.58256172435
vector 6504  Network.dyn_peer[1]  lookupTimeSig:vector  ETV
6504	52085 9203 32 135416 20.002 133.730033233486 296 0 2.1 134.7 82.45
vector 6511  Network.dyn_peer[4]  lookupHopsSig:vector  ETV
6511	114007 8629 45 136631 20.005 135.346032584202 294 0 20 1197 7613
vector 6512  Network.dyn_peer[4]  lookupStabilitySig:vector  ETV
6512	122636 9584 45 136631 20.005 135.346032584202 294 -1.5 1 144.40277777612 113.74556326903
vector 6513  Network.dyn_peer[4]  lookupTimeSig:vector  ETV
6513	132220 9186 45 136631 20.005 135.346032584202 294 0 1.8 135.2 84.46
vector 6544  Network.dyn_peer[15]  lookupHopsSig:vector  ETV
6544	413744 7713 82 136117 20.016 134.406592122492 263 0 21 1213 9083
vector 6545  Network.dyn_peer[15]  lookupStabilitySig:vector  ETV
6545	421457 8630 82 136117 20.016 134.406592122492 263 -1.625 1 111.44444443285 101.77469134184
vector 6546  Network.dyn_peer[15]  lookupTimeSig:vector  ETV
6546	430087 8189 82 136117 20.016 134.406592122492 263 0 1.9 132.4 93.8
vector 6556  Network.dyn_peer[19]  lookupHopsSig:vector  ETV
6556	527457 8163 98 135375 20.02 133.705472479084 278 0 23 1225 8401
vector 6557  Network.dyn_peer[19]  lookupStabilitySig:vector  ETV
6557	535620 9081 98 135375 20.02 133.705472479084 278 -1.875 1 124.875 103.015625
vector 6558  Network.dyn_peer[19]  lookupTimeSig:vector  ETV
6558	544701 8670 98 135375 20.02 133.705472479084 278 0 2.2 135.8 91.58
vector 6568  Network.dyn_peer[23]  lookupHopsSig:vector  ETV
6568	638821 8728 114 135963 20.024 134.22910324259 297 0 21 1241 8379
vector 6569  Network.dyn_peer[23]  lookupStabilitySig:vector  ETV
6569	647549 9694 114 135963 20.024 134.22910324259 297 -1.625 1 141.875 117.671875
vector 6570  Network.dyn_peer[23]  lookupTimeSig:vector  ETV
6570	657243 9289 114 135963 20.024 134.22910324259 297 0 1.9 138.6 89.92
vector 6577  Network.dyn_peer[26]  lookupHopsSig:vector  ETV
6577	720207 9295 127 136648 20.027 135.441541270329 316 0 21 1296 8638
vector 6578  Network.dyn_peer[26]  lookupStabilitySig:vector  ETV
6578	729502 10355 127 136648 20.027 135.441541270329 316 -1.625 1 154.06944441795 127.02565584065
vector 6579  Network.dyn_peer[26]  lookupTimeSig:vector  ETV
6579	739857 9883 127 136648 20.027 135.441541270329 316 0 1.9 145.3 92.83
vector 6586  Network.dyn_peer[29]  lookupHopsSig:vector  ETV
6586	805506 9033 140 136322 20.03 134.591119581009 307 0 17 1264 8094
vector 6587  Network.dyn_peer[29]  lookupStabilitySig:vector  ETV
6587	814539 10090 140 136322 20.03 134.591119581009 307 -1.125 1 149.02777777612 117.51118826903
vector 6588  Network.dyn_peer[29]  lookupTimeSig:vector  ETV
6588	824629 9601 140 136322 20.03 134.591119581009 307 0 1.7 140.6 88.64
vector 6499  Network.dyn_peer[0]  lookupHopsSig:vector  ETV
6499	6435 8626 151 135555 20.101 133.865879771906 293 0 22 1249 9197
vector 6500  Network.dyn_peer[0]  lookupStabilitySig:vector  ETV
6500	15061 9593 151 135555 20.101 133.865879771906 293 -1.75 1 136.875 124.453125
vector 6501  Network.dyn_peer[0]  lookupTimeSig:vector  ETV
6501	24654 9160 151 135555 20.101 133.865879771906 293 0 2 139.2 97.34
vector 6508  Network.dyn_peer[3]  lookupHopsSig:vector  ETV
6508	88213 8122 158 136400 20.104 134.716415444668 277 0 17 1159 7183
vector 6509  Network.dyn_peer[3]  lookupStabilitySig:vector  ETV
6509	96335 9032 158 136400 20.104 134.716415444668 277 -1.125 1 132.22222219408 99.583719109679
vector 6510  Network.dyn_peer[3]  lookupTimeSig:vector  ETV
6510	105367 8640 158 136400 20.104 134.716415444668 277 0 1.3 129.4 76.92
vector 6514  Network.dyn_peer[5]  lookupHopsSig:vector  ETV
6514	141406 8381 164 135541 20.106 133.855342844489 285 0 19 1223 8117
vector 6515  Network.dyn_peer[5]  lookupStabilitySig:vector  ETV
6515	149787 9294 164 135541 20.106 133.855342844489 285 -1.375 1 132.15277777612 106.12056326903
vector 6516  Network.dyn_peer[5]  lookupTimeSig:vector  ETV
6516	159081 8912 164 135541 20.106 133.855342844489 285 0 1.7 136.6 88.48
vector 6541  Network.dyn_peer[14]  lookupHopsSig:vector  ETV
6541	383634 9487 179 135691 20.115 133.965717709728 323 0 19 1349 8489
vector 6542  Network.dyn_peer[14]  lookupStabilitySig:vector  ETV
6542	393121 10520 179 135691 20.115 133.965717709728 323 -1.375 1 154.375 118.390625
vector 6543  Network.dyn_peer[14]  lookupTimeSig:vector  ETV
6543	403641 10103 179 135691 20.115 133.965717709728 323 0 1.9 152.2 94.58
vector 6550  Network.dyn_peer[17]  lookupHopsSig:vector  ETV
6550	467972 9235 186 135948 20.118 134.21682291547 315 0 18 1241 7663
vector 6551  Network.dyn_peer[17]  lookupStabilitySig:vector  ETV
6551	477207 10274 186 135948 20.118 134.21682291547 315 -1.25 1 159.91666665673 124.5381944312
vector 6552  Network.dyn_peer[17]  lookupTimeSig:vector  ETV
6552	487481 9818 186 135948 20.118 134.21682291547 315 0 1.5 142.3 87.43
vector 6580  Network.dyn_peer[27]  lookupHopsSig:vector  ETV
6580	749740 8852 201 136513 20.128 134.897007676471 302 0 25 1292 8318
vector 6581  Network.dyn_peer[27]  lookupStabilitySig:vector  ETV
6581	758592 9852 201 136513 20.128 134.897007676471 302 -2.125 1 140.5 108.96875
vector 6582  Network.dyn_peer[27]  lookupTimeSig:vector  ETV
6582	768444 9412 201 136513 20.128 134.897007676471 302 0 2.2 143.6 90.46
vector 6583  Network.dyn_peer[28]  lookupHopsSig:vector  ETV
6583	777856 8709 206 136204 20.129 134.496907676471 297 0 25 1277 8963
vector 6584  Network.dyn_peer[28]  lookupStabilitySig:vector  ETV
6584	786565 9675 206 136204 20.129 134.496907676471 297 -2.125 1 137.5 117.78125
vector 6585  Network.dyn_peer[28]  lookupTimeSig:vector  ETV
6585	796240 9266 206 136204 20.129 134.496907676471 297 0 2 140.6 92.46
vector 6589  Network.dyn_peer[30]  lookupHopsSig:vector  ETV
6589	834230 9468 212 136190 20.131 134.48392458642 322 0 18 1280 7842
vector 6590  Network.dyn_peer[30]  lookupStabilitySig:vector  ETV
6590	843698 10520 212 136190 20.131 134.48392458642 322 -1.25 1 162.04166665673 124.5850694312
vector 6591  Network.dyn_peer[30]  lookupTimeSig:vector  ETV
6591	854218 10076 212 136190 20.131 134.48392458642 322 0 1.7 144.9 88.73
vector 6505  Network.dyn_peer[2]  lookupHopsSig:vector  ETV
6505	61288 8470 220 136283 20.203 134.526283198992 288 0 18 1192 7312
vector 6506  Network.dyn_peer[2]  lookupStabilitySig:vector  ETV
6506	69758 9440 220 136283 20.203 134.526283198992 288 -1.25 1 139.09722220898 104.28375771016
vector 6507  Network.dyn_peer[2]  lookupTimeSig:vector  ETV
6507	79198 9015 220 136283 20.203 134.526283198992 288 0 1.5 133 79.82
vector 6517  Network.dyn_peer[6]  lookupHopsSig:vector  ETV
6517	167993 8410 227 135142 20.207 133.432840069989 286 0 27 1265 9725
vector 6518  Network.dyn_peer[6]  lookupStabilitySig:vector  ETV
6518	176403 9337 227 135142 20.207 133.432840069989 286 -2.375 1 127.875 121.703125
vector 6519  Network.dyn_peer[6]  lookupTimeSig:vector  ETV
6519	185740 8942 227 135142 20.207 133.432840069989 286 0 2.2 139.3 97.97
vector 6520  Network.dyn_peer[7]  lookupHopsSig:vector  ETV
6520	194682 8752 232 135820 20.208 134.107729202578 298 0 19 1285 8629
vector 6521  Network.dyn_peer[7]  lookupStabilitySig:vector  ETV
6521	203434 9725 232 135820 20.208 134.107729202578 298 -1.375 1 137.47222220898 111.61188271016
vector 6522  Network.dyn_peer[7]  lookupTimeSig:vector  ETV
6522	213159 9325 232 135820 20.208 134.107729202578 298 0 1.8 143.1 93.75
vector 6526  Network.dyn_peer[9]  lookupHopsSig:vector  ETV
6526	250218 8178 238 135361 20.21 133.696948920166 278 0 17 1256 8916
vector 6527  Network.dyn_peer[9]  lookupStabilitySig:vector  ETV
6527	258396 9094 238 135361 20.21 133.696948920166 278 -1.125 1 121 103.3125
vector 6528  Network.dyn_peer[9]  lookupTimeSig:vector  ETV
6528	267490 8682 238 135361 20.21 133.696948920166 278 0 1.7 139 97.16
vector 6535  Network.dyn_peer[12]  lookupHopsSig:vector  ETV
6535	332547 8055 247 135968 20.213 134.232682826385 274 0 24 1237 8569
vector 6536  Network.dyn_peer[12]  lookupStabilitySig:vector  ETV
6536	340602 8937 247 135968 20.213 134.232682826385 274 -2 1 119.55555558205 98.44753084065
vector 6537  Network.dyn_peer[12]  lookupTimeSig:vector  ETV
6537	349539 8559 247 135968 20.213 134.232682826385 274 0 2.1 137.2 91.88
vector 6547  Network.dyn_peer[16]  lookupHopsSig:vector  ETV
6547	438276 9343 254 136436 20.217 134.733681765622 317 0 21 1221 7597
vector 6548  Network.dyn_peer[16]  lookupStabilitySig:vector  ETV
6548	447619 10412 254 136436 20.217 134.733681765622 317 -1.625 1 164.55555553734 130.58796295082
vector 6549  Network.dyn_peer[16]  lookupTimeSig:vector  ETV
6549	458031 9941 254 136436 20.217 134.733681765622 317 0 1.9 138 83.88
vector 6562  Network.dyn_peer[21]  lookupHopsSig:vector  ETV
6562	582646 9378 265 136231 20.222 134.505055199334 319 0 16 1227 7139
vector 6563  Network.dyn_peer[21]  lookupStabilitySig:vector  ETV
6563	592024 10412 265 136231 20.222 134.505055199334 319 -1 1 165.625 123.796875
vector 6564  Network.dyn_peer[21]  lookupTimeSig:vector  ETV
6564	602436 9981 265 136231 20.222 134.505055199334 319 0 1.5 138.9 79.27
vector 6571  Network.dyn_peer[24]  lookupHopsSig:vector  ETV
6571	666532 8047 272 136603 20.225 135.177154812723 273 0 26 1305 9797
vector 6572  Network.dyn_peer[24]  lookupStabilitySig:vector  ETV
6572	674579 8942 272 136603 20.225 135.177154812723 273 -2.25 1 109.88888888806 99.852623455318
vector 6573  Network.dyn_peer[24]  lookupTimeSig:vector  ETV
6573	683521 8538 272 136603 20.225 135.177154812723 273 0 2.2 141.8 99.88
vector 6592  Network.dyn_peer[31]  lookupHopsSig:vector  ETV
6592	864294 8540 284 136061 20.232 134.320917768705 291 0 19 1197 7613
vector 6593  Network.dyn_peer[31]  lookupStabilitySig:vector  ETV
6593	872834 9467 284 136061 20.232 134.320917768705 291 -1.375 1 141.375 110.703125
vector 6594  Network.dyn_peer[31]  lookupTimeSig:vector  ETV
6594	882301 9091 284 136061 20.232 134.320917768705 291 0 1.6 134 81.66
vector 6523  Network.dyn_peer[8]  lookupHopsSig:vector  ETV
6523	222484 8736 299 135437 20.309 133.735728833255 297 0 24 1218 7822
vector 6524  Network.dyn_peer[8]  lookupStabilitySig:vector  ETV
6524	231220 9701 299 135437 20.309 133.735728833255 297 -2 1 144.75 114.71875
vector 6525  Network.dyn_peer[8]  lookupTimeSig:vector  ETV
6525	240921 9297 299 135437 20.309 133.735728833255 297 0 2.1 137.5 86.99
vector 6532  Network.dyn_peer[11]  lookupHopsSig:vector  ETV
6532	305113 8645 307 136454 20.312 134.789384682819 293 0 17 1228 7950
vector 6533  Network.dyn_peer[11]  lookupStabilitySig:vector  ETV
6533	313758 9590 307 136454 20.312 134.789384682819 293 -1.125 1 139.5 110.21875
vector 6534  Network.dyn_peer[11]  lookupTimeSig:vector  ETV
6534	323348 9199 307 136454 20.312 134.789384682819 293 0 1.6 137 86.5
vector 6553  Network.dyn_peer[18]  lookupHopsSig:vector  ETV
6553	497299 9487 320 136223 20.319 134.501984009301 323 0 18 1213 7075
vector 6554  Network.dyn_peer[18]  lookupStabilitySig:vector  ETV
6554	506786 10576 320 136223 20.319 134.501984009301 323 -1.25 1 171.58333328366 130.44135798201
vector 6555  Network.dyn_peer[18]  lookupTimeSig:vector  ETV
6555	517362 10095 320 136223 20.319 134.501984009301 323 0 1.4 137.1 77.19
vector 6559  Network.dyn_peer[20]  lookupHopsSig:vector  ETV
6559	553371 9212 329 136546 20.321 134.997007676471 314 0 16 1205 7503
vector 6560  Network.dyn_peer[20]  lookupStabilitySig:vector  ETV
6560	562583 10264 329 136546 20.321 134.997007676471 314 -1 1 163.47222219408 130.08371910968
vector 6561  Network.dyn_peer[20]  lookupTimeSig:vector  ETV
6561	572847 9799 329 136546 20.321 134.997007676471 314 0 1.5 136.5 83.31
vector 6574  Network.dyn_peer[25]  lookupHopsSig:vector  ETV
6574	692059 8873 341 134707 20.326 133.089463847907 301 0 21 1258 8318
vector 6575  Network.dyn_peer[25]  lookupStabilitySig:vector  ETV
6575	700932 9846 341 134707 20.326 133.089463847907 301 -1.625 1 143.84722220898 116.50250771016
vector 6576  Network.dyn_peer[25]  lookupTimeSig:vector  ETV
6576	710778 9429 341 134707 20.326 133.089463847907 301 0 1.9 140.2 89.84
vector 6565  Network.dyn_peer[22]  lookupHopsSig:vector  ETV
6565	612417 8318 386 136139 20.423 134.41505602286 282 0 19 1340 9452
vector 6566  Network.dyn_peer[22]  lookupStabilitySig:vector  ETV
6566	620735 9241 386 136139 20.423 134.41505602286 282 -1.375 1 114.59722220898 94.721257710163
vector 6567  Network.dyn_peer[22]  lookupTimeSig:vector  ETV
6567	629976 8845 386 136139 20.423 134.41505602286 282 0.1 1.7 145.5 98.91
vector 6529  Network.dyn_peer[10]  lookupHopsSig:vector  ETV
6529	276172 9118 416 135583 20.511 133.888693306392 311 0 17 1354 8734
vector 6530  Network.dyn_peer[10]  lookupStabilitySig:vector  ETV
6530	285290 10130 416 135583 20.511 133.888693306392 311 -1.125 1 141.75 108.96875
vector 6531  Network.dyn_peer[10]  lookupTimeSig:vector  ETV
6531	295420 9693 416 135583 20.511 133.888693306392 311 0 1.6 151.9 98.03
vector 6538  Network.dyn_peer[13]  lookupHopsSig:vector  ETV
6538	358098 8044 426 135229 20.514 133.524316955831 274 1 24 1280 9212
vector 6539  Network.dyn_peer[13]  lookupStabilitySig:vector  ETV
6539	366142 8951 426 135229 20.514 133.524316955831 274 -2 0.875 114 97.9375
vector 6540  Network.dyn_peer[13]  lookupTimeSig:vector  ETV
6540	375093 8541 426 135229 20.514 133.524316955831 274 0.1 2.2 139.2 95.04
