version 2
run Stability-57-20130528-00:53:47-21385
attr configname Stability
attr datetime 20130528-00:53:47
attr experiment Stability
attr inifile omnetpp.ini
attr iterationvars $0=1e1
attr iterationvars2 "$0=1e1, $repetition=7"
attr measurement $0=1e1
attr network Network
attr processid 21385
attr repetition 7
attr replication #7
attr resultdir results
attr runnumber 57
attr seedset 57

vector 5625  Network.churner  inGoingSizeSig:vector  ETV
vector 5529  Network.dyn_peer[0]  lookupHopsSig:vector  ETV
vector 5530  Network.dyn_peer[0]  lookupStabilitySig:vector  ETV
vector 5531  Network.dyn_peer[0]  lookupTimeSig:vector  ETV
vector 5538  Network.dyn_peer[3]  lookupHopsSig:vector  ETV
vector 5539  Network.dyn_peer[3]  lookupStabilitySig:vector  ETV
vector 5540  Network.dyn_peer[3]  lookupTimeSig:vector  ETV
vector 5532  Network.dyn_peer[1]  lookupHopsSig:vector  ETV
vector 5533  Network.dyn_peer[1]  lookupStabilitySig:vector  ETV
vector 5534  Network.dyn_peer[1]  lookupTimeSig:vector  ETV
vector 5541  Network.dyn_peer[4]  lookupHopsSig:vector  ETV
vector 5542  Network.dyn_peer[4]  lookupStabilitySig:vector  ETV
vector 5543  Network.dyn_peer[4]  lookupTimeSig:vector  ETV
vector 5544  Network.dyn_peer[5]  lookupHopsSig:vector  ETV
vector 5545  Network.dyn_peer[5]  lookupStabilitySig:vector  ETV
vector 5546  Network.dyn_peer[5]  lookupTimeSig:vector  ETV
vector 5547  Network.dyn_peer[6]  lookupHopsSig:vector  ETV
vector 5548  Network.dyn_peer[6]  lookupStabilitySig:vector  ETV
vector 5549  Network.dyn_peer[6]  lookupTimeSig:vector  ETV
vector 5556  Network.dyn_peer[9]  lookupHopsSig:vector  ETV
vector 5557  Network.dyn_peer[9]  lookupStabilitySig:vector  ETV
vector 5558  Network.dyn_peer[9]  lookupTimeSig:vector  ETV
vector 5562  Network.dyn_peer[11]  lookupHopsSig:vector  ETV
vector 5563  Network.dyn_peer[11]  lookupStabilitySig:vector  ETV
vector 5564  Network.dyn_peer[11]  lookupTimeSig:vector  ETV
vector 5535  Network.dyn_peer[2]  lookupHopsSig:vector  ETV
vector 5536  Network.dyn_peer[2]  lookupStabilitySig:vector  ETV
vector 5537  Network.dyn_peer[2]  lookupTimeSig:vector  ETV
vector 5568  Network.dyn_peer[13]  lookupHopsSig:vector  ETV
vector 5569  Network.dyn_peer[13]  lookupStabilitySig:vector  ETV
vector 5570  Network.dyn_peer[13]  lookupTimeSig:vector  ETV
vector 5574  Network.dyn_peer[15]  lookupHopsSig:vector  ETV
vector 5575  Network.dyn_peer[15]  lookupStabilitySig:vector  ETV
vector 5576  Network.dyn_peer[15]  lookupTimeSig:vector  ETV
vector 5550  Network.dyn_peer[7]  lookupHopsSig:vector  ETV
vector 5551  Network.dyn_peer[7]  lookupStabilitySig:vector  ETV
vector 5552  Network.dyn_peer[7]  lookupTimeSig:vector  ETV
vector 5580  Network.dyn_peer[17]  lookupHopsSig:vector  ETV
vector 5581  Network.dyn_peer[17]  lookupStabilitySig:vector  ETV
vector 5582  Network.dyn_peer[17]  lookupTimeSig:vector  ETV
vector 5553  Network.dyn_peer[8]  lookupHopsSig:vector  ETV
vector 5554  Network.dyn_peer[8]  lookupStabilitySig:vector  ETV
vector 5555  Network.dyn_peer[8]  lookupTimeSig:vector  ETV
vector 5586  Network.dyn_peer[19]  lookupHopsSig:vector  ETV
vector 5587  Network.dyn_peer[19]  lookupStabilitySig:vector  ETV
vector 5588  Network.dyn_peer[19]  lookupTimeSig:vector  ETV
vector 5616  Network.dyn_peer[29]  lookupHopsSig:vector  ETV
vector 5617  Network.dyn_peer[29]  lookupStabilitySig:vector  ETV
vector 5618  Network.dyn_peer[29]  lookupTimeSig:vector  ETV
vector 5559  Network.dyn_peer[10]  lookupHopsSig:vector  ETV
vector 5560  Network.dyn_peer[10]  lookupStabilitySig:vector  ETV
vector 5561  Network.dyn_peer[10]  lookupTimeSig:vector  ETV
vector 5589  Network.dyn_peer[20]  lookupHopsSig:vector  ETV
vector 5590  Network.dyn_peer[20]  lookupStabilitySig:vector  ETV
vector 5591  Network.dyn_peer[20]  lookupTimeSig:vector  ETV
vector 5565  Network.dyn_peer[12]  lookupHopsSig:vector  ETV
vector 5566  Network.dyn_peer[12]  lookupStabilitySig:vector  ETV
vector 5567  Network.dyn_peer[12]  lookupTimeSig:vector  ETV
vector 5577  Network.dyn_peer[16]  lookupHopsSig:vector  ETV
vector 5578  Network.dyn_peer[16]  lookupStabilitySig:vector  ETV
vector 5579  Network.dyn_peer[16]  lookupTimeSig:vector  ETV
vector 5613  Network.dyn_peer[28]  lookupHopsSig:vector  ETV
vector 5614  Network.dyn_peer[28]  lookupStabilitySig:vector  ETV
vector 5615  Network.dyn_peer[28]  lookupTimeSig:vector  ETV
vector 5595  Network.dyn_peer[22]  lookupHopsSig:vector  ETV
vector 5596  Network.dyn_peer[22]  lookupStabilitySig:vector  ETV
vector 5597  Network.dyn_peer[22]  lookupTimeSig:vector  ETV
vector 5598  Network.dyn_peer[23]  lookupHopsSig:vector  ETV
vector 5599  Network.dyn_peer[23]  lookupStabilitySig:vector  ETV
vector 5600  Network.dyn_peer[23]  lookupTimeSig:vector  ETV
vector 5571  Network.dyn_peer[14]  lookupHopsSig:vector  ETV
vector 5572  Network.dyn_peer[14]  lookupStabilitySig:vector  ETV
vector 5573  Network.dyn_peer[14]  lookupTimeSig:vector  ETV
vector 5601  Network.dyn_peer[24]  lookupHopsSig:vector  ETV
vector 5602  Network.dyn_peer[24]  lookupStabilitySig:vector  ETV
vector 5603  Network.dyn_peer[24]  lookupTimeSig:vector  ETV
vector 5604  Network.dyn_peer[25]  lookupHopsSig:vector  ETV
vector 5605  Network.dyn_peer[25]  lookupStabilitySig:vector  ETV
vector 5606  Network.dyn_peer[25]  lookupTimeSig:vector  ETV
vector 5610  Network.dyn_peer[27]  lookupHopsSig:vector  ETV
vector 5611  Network.dyn_peer[27]  lookupStabilitySig:vector  ETV
vector 5612  Network.dyn_peer[27]  lookupTimeSig:vector  ETV
vector 5592  Network.dyn_peer[21]  lookupHopsSig:vector  ETV
vector 5593  Network.dyn_peer[21]  lookupStabilitySig:vector  ETV
vector 5594  Network.dyn_peer[21]  lookupTimeSig:vector  ETV
vector 5607  Network.dyn_peer[26]  lookupHopsSig:vector  ETV
vector 5608  Network.dyn_peer[26]  lookupStabilitySig:vector  ETV
vector 5609  Network.dyn_peer[26]  lookupTimeSig:vector  ETV
vector 5619  Network.dyn_peer[30]  lookupHopsSig:vector  ETV
vector 5620  Network.dyn_peer[30]  lookupStabilitySig:vector  ETV
vector 5621  Network.dyn_peer[30]  lookupTimeSig:vector  ETV
vector 5622  Network.dyn_peer[31]  lookupHopsSig:vector  ETV
vector 5623  Network.dyn_peer[31]  lookupStabilitySig:vector  ETV
vector 5624  Network.dyn_peer[31]  lookupTimeSig:vector  ETV
vector 5583  Network.dyn_peer[18]  lookupHopsSig:vector  ETV
vector 5584  Network.dyn_peer[18]  lookupStabilitySig:vector  ETV
vector 5585  Network.dyn_peer[18]  lookupTimeSig:vector  ETV
5529	29	20.01	0
5529	124	20.21	1
5529	410	20.6156562001	3
5529	661	21.022339211636	3
5529	686	21.033715461919	0
5529	1211	21.633715461919	5
5529	1799	22.139110977622	4
5529	2142	22.439177751557	2
5529	3530	23.462002748966	11
5529	4186	23.964399665738	4
5529	4524	24.234053884653	3
5529	4573	24.275624354296	2
5529	5421	24.987900317521	7
5529	6038	25.487900317521	4
5529	6952	26.391617839571	8
5529	7547	26.973608209246	9
5529	7586	27.00067049238	6
5529	7893	27.27491220436	2
5529	7900	27.277661526332	4
5529	7926	27.30231057857	2
5529	8072	27.434152287545	2
5529	8532	27.703805870254	2
5529	8681	27.807896220453	4
5529	9984	28.822467953066	11
5529	10224	29.022467953066	1
5529	10891	29.626789474989	5
5529	11438	30.136889474989	5
5529	12146	30.734304308043	1
5529	12362	30.934304308043	1
5529	13568	31.834540288368	9
5529	13789	32.038295000223	5
5529	13919	32.139781275732	2
5529	15036	33.049896000326	10
5529	15369	33.349896000326	2
5529	15859	33.753854317269	3
5529	16761	34.463954317269	7
5529	17065	34.763954317269	2
5529	17463	35.072580200449	2
5529	17771	35.379508168853	2
5529	19079	36.50986726362	12
5529	19637	37.00986726362	4
5529	20033	37.319687371668	2
5529	20277	37.508306578407	2
5529	20398	37.621279569016	2
5529	20640	37.823403830106	1
5529	21041	38.210771587046	6
5529	21375	38.526724056043	3
5529	22921	39.797838891697	8
5529	23699	40.497838891697	6
5529	24236	40.908824032972	4
5529	24444	41.114013389598	1
5529	24796	41.421549112342	2
5529	25226	41.830938024205	3
5529	25549	42.049576296644	2
5529	25911	42.349576296644	2
5529	25950	42.370928339611	1
5529	26343	42.682741970617	3
5529	26543	42.882741970617	1
5529	26997	43.391323855937	4
5529	27293	43.699946616909	2
5529	27636	44.003651602005	2
5529	28214	44.605058460181	5
5529	28450	44.819111684596	3
5529	29762	45.897122869584	6
5529	31173	47.197122869584	13
5529	32088	48.10805910674	8
5529	32173	48.162458165123	5
5529	32555	48.463978459504	2
5529	33382	48.976691727525	5
5529	34077	49.476691727525	4
5529	34519	49.885065825086	4
5529	34632	49.991621272245	4
5529	34962	50.306282854876	3
5529	35202	50.506282854876	1
5529	35684	50.909738398177	3
5529	35955	51.113890857565	1
5529	36198	51.315121114483	1
5529	36357	51.484289891842	3
5529	36497	51.597784296306	2
5529	36719	51.822912518981	4
5529	36968	52.041424379267	3
5529	37550	52.541424379267	5
5529	37798	52.757501661813	1
5529	37880	52.871973899677	4
5529	38756	53.590685369818	8
5529	39667	54.390685369818	7
5529	39960	54.598572754779	2
5529	40311	54.9071298149	2
5529	40516	55.116683304228	1
5529	40774	55.330923178649	2
5529	42086	56.430923178649	12
5529	42655	56.869989878233	6
5529	42799	57.040863979974	6
5529	43269	57.371059555758	4
5529	43687	57.680015870376	2
5529	44270	58.098193339003	7
5529	44487	58.298193339003	1
5529	44653	58.401797807196	1
5529	45064	58.726333312242	3
5529	45607	59.126333312242	3
5529	45816	59.308678132914	3
5529	45930	59.433816399689	3
5529	46284	59.745363362993	4
5529	47628	60.850607030474	2
5529	47851	61.045363362993	12
5529	48296	61.361054575917	4
5529	48781	61.775496388972	4
5529	49497	62.375496388972	5
5529	49900	62.677232347522	3
5529	50958	63.394085452787	7
5529	51222	63.594085452787	1
5529	52613	64.794636188694	12
5529	53170	65.197686861855	3
5529	53592	65.517202805787	4
5529	54604	66.317202805787	8
5529	55091	66.722887372324	3
5529	55976	67.524648770367	7
5529	56004	67.559838144946	7
5529	56703	68.178275351735	7
5529	57491	68.758404624546	4
5529	58827	69.865531102833	12
5529	60190	71.073741346518	12
5529	60794	71.586477429749	4
5529	61216	72.051976522464	10
5529	62061	72.862076522464	8
5529	62446	73.162076522464	2
5529	62915	73.549012378423	3
5529	62930	73.557648290871	3
5529	63571	73.969622391741	5
5529	64122	74.469622391741	5
5529	64446	74.681213609486	1
5529	64840	74.986561578941	2
5529	65339	75.396661578941	5
5529	65712	75.795324555157	1
5529	65991	76.005424555157	2
5529	66848	76.762116851931	4
5529	67832	77.472216851931	7
5529	69270	78.472216851931	9
5529	69903	78.975009924623	4
5529	70215	79.283372812986	2
5529	70667	79.697023059045	5
5529	70885	79.892540991781	6
5529	70896	79.900467260816	1
5529	70932	79.93124715293	8
5529	71626	80.446457068222	6
5529	71851	80.646457068222	1
5529	72580	81.25567220571	5
5529	73131	81.627403455592	4
5529	73428	81.845240438002	2
5529	74741	82.945240438002	11
5529	75146	83.246764310879	2
5529	75722	83.74689062741	4
5529	75785	83.823823810306	4
5529	76531	84.440455233049	6
5529	77279	84.940455233049	4
5529	77667	85.249363313796	2
5529	77940	85.452987673949	1
5529	77976	85.49782025293	1
5529	78430	85.913889495288	4
5529	78746	86.213889495288	2
5529	78999	86.429255661661	2
5529	79578	86.929255661661	4
5529	79793	87.136621538828	1
5529	80274	87.543674423316	3
5529	80622	87.849056543806	2
5529	81089	88.259156543806	4
5529	81474	88.559156543806	2
5529	81814	88.863582567507	2
5529	82644	89.580609699813	8
5529	83302	90.128466688347	1
5529	83594	90.345374528851	2
5529	83854	90.545374528851	1
5529	84014	90.706575141705	1
5529	84503	91.116675141705	4
5529	84760	91.316675141705	2
5529	85390	91.820965440105	4
5529	85814	92.1151162594	2
5529	85860	92.128350133445	3
5529	86781	92.941773128237	9
5529	87106	93.241773128237	2
5529	87294	93.443298665326	1
5529	87364	93.483900521745	2
5529	87410	93.505933943523	0
5529	88560	94.505933943523	10
5529	88900	94.844870514031	8
5529	89309	95.208959913607	7
5529	89447	95.319059913607	1
5529	89771	95.619059913607	2
5529	90516	96.220499151092	5
5529	90663	96.32073138605	0
5529	91166	96.727499881895	4
5529	91749	97.218922565376	4
5529	91978	97.42960548643	7
5529	92096	97.545342913455	11
5529	92338	97.762057620407	2
5529	93926	99.070394101974	9
5529	94059	99.170394101974	1
5529	94212	99.277929986778	1
5529	95064	99.992423193035	8
5529	96252	101.095257622836	11
5529	96710	101.501282376617	3
5529	96853	101.60279607407	0
5529	97425	102.008233191383	3
5529	97960	102.517732953438	4
5529	98498	103.020168145717	4
5529	98515	103.036238670891	11
5529	98784	103.220782122468	1
5529	98952	103.341690841207	2
5529	98977	103.35723547779	2
5529	99564	103.769249188867	4
5529	100040	104.069249188867	3
5529	100645	104.537728233462	3
5529	100674	104.570269692113	4
5529	100936	104.838259739716	2
5529	101013	104.870934739804	0
5529	101487	105.270934739804	4
5529	102025	105.678463182302	4
5529	102055	105.710827998461	3
5529	102604	106.081256648198	4
5529	102634	106.118433346273	4
5529	103052	106.424192864936	2
5529	103574	106.838780093364	6
5529	104282	107.438780093364	5
5529	104555	107.648764625076	1
5529	105004	108.049071923464	3
5529	106699	109.356040131994	13
5529	106737	109.422618220018	7
5529	107349	109.924377030751	4
5529	107358	109.931945684885	4
5529	107568	110.062473069054	6
5529	107985	110.37838007771	3
5529	108253	110.588302928642	2
5529	108502	110.790350746453	1
5529	108810	111.056169497428	4
5529	109217	111.366269497428	3
5529	109462	111.566269497428	1
5529	110794	112.673615542265	3
5529	111893	113.573615542265	9
5529	113486	114.954401475917	10
5529	114314	115.654401475917	7
5529	114756	116.055270010739	3
5529	114978	116.262317651816	1
5529	115199	116.467630865628	1
5529	115226	116.478625931067	0
5529	115512	116.678625931067	1
5529	115820	116.926625881477	2
5529	116460	117.549888591821	7
5529	116634	117.749888591821	1
5529	117376	118.393515452432	4
5529	117491	118.494889536121	1
5529	117557	118.568090626155	6
5529	118488	119.2830935365	7
5529	118745	119.4830935365	1
5529	119010	119.687226278767	1
5529	119182	119.802576753498	2
5529	119699	120.202576753498	3
5529	119831	120.318046360188	1
5529	120692	121.079826789147	5
5529	121127	121.418046360188	11
5529	121356	121.618951842519	1
5529	121435	121.683320310935	5
5529	122675	122.597349019022	11
5529	123507	123.339510384376	3
5529	123667	123.497349019022	9
5529	123898	123.707449019022	2
5529	124577	124.207449019022	4
5529	125083	124.617549019022	4
5529	126438	125.717549019022	12
5529	127065	126.126064523283	3
5529	127286	126.329507498991	1
5529	127451	126.485732151648	1
5529	128091	127.005185795592	5
5529	128546	127.405185795592	3
5529	128720	127.520637925283	1
5529	128938	127.720637925283	1
5529	129173	127.928650399662	1
5529	129774	128.443911166412	5
5529	130139	128.751905798248	2
5529	130673	129.225274449452	2
5529	130966	129.532065860659	2
5529	131311	129.834308673697	2
5529	131535	130.040177994807	1
5529	131714	130.158277401165	0
5529	131716	130.158287864292	15
5529	131858	130.27737206262	7
5529	131875	130.284832767965	2
5529	132348	130.597052200885	3
5529	132760	130.90004390295	2
5529	133544	131.61014390295	7
5529	133841	131.91014390295	2
5529	134301	132.415660479533	5
5529	134549	132.632751962668	8
5529	134623	132.719911076178	3
5529	134636	132.725820864421	3
5529	134737	132.837874670109	1
5530	29	20.01	1
5530	124	20.21	0.875
5530	410	20.6156562001	0.625
5530	661	21.022339211636	0.625
5530	686	21.033715461919	1
5530	1211	21.633715461919	0.375
5530	1799	22.139110977622	0.5
5530	2142	22.439177751557	0.75
5530	3530	23.462002748966	-0.375
5530	4186	23.964399665738	0.5
5530	4524	24.234053884653	0.625
5530	4573	24.275624354296	0.75
5530	5421	24.987900317521	0.125
5530	6038	25.487900317521	0.5
5530	6952	26.391617839571	0
5530	7547	26.973608209246	-0.125
5530	7586	27.00067049238	0.25
5530	7893	27.27491220436	0.75
5530	7900	27.277661526332	0.5
5530	7926	27.30231057857	0.75
5530	8072	27.434152287545	0.75
5530	8532	27.703805870254	0.75
5530	8681	27.807896220453	0.5
5530	9984	28.822467953066	-0.375
5530	10224	29.022467953066	0.875
5530	10891	29.626789474989	0.375
5530	11438	30.136889474989	0.375
5530	12146	30.734304308043	0.875
5530	12362	30.934304308043	0.875
5530	13568	31.834540288368	-0.125
5530	13789	32.038295000223	0.375
5530	13919	32.139781275732	0.75
5530	15036	33.049896000326	-0.25
5530	15369	33.349896000326	0.75
5530	15859	33.753854317269	0.625
5530	16761	34.463954317269	0.125
5530	17065	34.763954317269	0.75
5530	17463	35.072580200449	0.75
5530	17771	35.379508168853	0.75
5530	19079	36.50986726362	-0.5
5530	19637	37.00986726362	0.5
5530	20033	37.319687371668	0.75
5530	20277	37.508306578407	0.75
5530	20398	37.621279569016	0.75
5530	20640	37.823403830106	0.875
5530	21041	38.210771587046	0.25
5530	21375	38.526724056043	0.625
5530	22921	39.797838891697	0
5530	23699	40.497838891697	0.25
5530	24236	40.908824032972	0.5
5530	24444	41.114013389598	0.875
5530	24796	41.421549112342	0.75
5530	25226	41.830938024205	0.625
5530	25549	42.049576296644	0.75
5530	25911	42.349576296644	0.75
5530	25950	42.370928339611	0.875
5530	26343	42.682741970617	0.625
5530	26543	42.882741970617	0.875
5530	26997	43.391323855937	0.5
5530	27293	43.699946616909	0.75
5530	27636	44.003651602005	0.75
5530	28214	44.605058460181	0.375
5530	28450	44.819111684596	0.625
5530	29762	45.897122869584	0.25
5530	31173	47.197122869584	-0.625
5530	32088	48.10805910674	0
5530	32173	48.162458165123	0.375
5530	32555	48.463978459504	0.75
5530	33382	48.976691727525	0.375
5530	34077	49.476691727525	0.5
5530	34519	49.885065825086	0.5
5530	34632	49.991621272245	0.5
5530	34962	50.306282854876	0.625
5530	35202	50.506282854876	0.875
5530	35684	50.909738398177	0.625
5530	35955	51.113890857565	0.875
5530	36198	51.315121114483	0.875
5530	36357	51.484289891842	0.625
5530	36497	51.597784296306	0.75
5530	36719	51.822912518981	0.5
5530	36968	52.041424379267	0.625
5530	37550	52.541424379267	0.375
5530	37798	52.757501661813	0.875
5530	37880	52.871973899677	0.5
5530	38756	53.590685369818	0
5530	39667	54.390685369818	0.125
5530	39960	54.598572754779	0.75
5530	40311	54.9071298149	0.75
5530	40516	55.116683304228	0.875
5530	40774	55.330923178649	0.75
5530	42086	56.430923178649	-0.5
5530	42655	56.869989878233	0.25
5530	42799	57.040863979974	0.25
5530	43269	57.371059555758	0.5
5530	43687	57.680015870376	0.75
5530	44270	58.098193339003	0.125
5530	44487	58.298193339003	0.875
5530	44653	58.401797807196	0.875
5530	45064	58.726333312242	0.625
5530	45607	59.126333312242	0.625
5530	45816	59.308678132914	0.625
5530	45930	59.433816399689	0.625
5530	46284	59.745363362993	0.5
5530	47628	60.850607030474	0.75
5530	47851	61.045363362993	-0.5
5530	48296	61.361054575917	0.5
5530	48781	61.775496388972	0.5
5530	49497	62.375496388972	0.375
5530	49900	62.677232347522	0.625
5530	50958	63.394085452787	0.125
5530	51222	63.594085452787	0.875
5530	52613	64.794636188694	-0.5
5530	53170	65.197686861855	0.625
5530	53592	65.517202805787	0.5
5530	54604	66.317202805787	0
5530	55091	66.722887372324	0.625
5530	55976	67.524648770367	0.125
5530	56004	67.559838144946	0.125
5530	56703	68.178275351735	0.125
5530	57491	68.758404624546	0.5
5530	58827	69.865531102833	-0.5
5530	60190	71.073741346518	-0.5
5530	60794	71.586477429749	0.5
5530	61216	72.051976522464	-0.25
5530	62061	72.862076522464	0
5530	62446	73.162076522464	0.75
5530	62915	73.549012378423	0.625
5530	62930	73.557648290871	0.625
5530	63571	73.969622391741	0.375
5530	64122	74.469622391741	0.375
5530	64446	74.681213609486	0.875
5530	64840	74.986561578941	0.75
5530	65339	75.396661578941	0.375
5530	65712	75.795324555157	0.875
5530	65991	76.005424555157	0.75
5530	66848	76.762116851931	0.5
5530	67832	77.472216851931	0.125
5530	69270	78.472216851931	-0.125
5530	69903	78.975009924623	0.5
5530	70215	79.283372812986	0.75
5530	70667	79.697023059045	0.375
5530	70885	79.892540991781	0.25
5530	70896	79.900467260816	0.875
5530	70932	79.93124715293	0
5530	71626	80.446457068222	0.25
5530	71851	80.646457068222	0.875
5530	72580	81.25567220571	0.375
5530	73131	81.627403455592	0.5
5530	73428	81.845240438002	0.75
5530	74741	82.945240438002	-0.375
5530	75146	83.246764310879	0.75
5530	75722	83.74689062741	0.5
5530	75785	83.823823810306	0.5
5530	76531	84.440455233049	0.25
5530	77279	84.940455233049	0.5
5530	77667	85.249363313796	0.75
5530	77940	85.452987673949	0.875
5530	77976	85.49782025293	0.875
5530	78430	85.913889495288	0.5
5530	78746	86.213889495288	0.75
5530	78999	86.429255661661	0.75
5530	79578	86.929255661661	0.5
5530	79793	87.136621538828	0.875
5530	80274	87.543674423316	0.625
5530	80622	87.849056543806	0.75
5530	81089	88.259156543806	0.5
5530	81474	88.559156543806	0.75
5530	81814	88.863582567507	0.75
5530	82644	89.580609699813	0
5530	83302	90.128466688347	0.875
5530	83594	90.345374528851	0.75
5530	83854	90.545374528851	0.875
5530	84014	90.706575141705	0.875
5530	84503	91.116675141705	0.5
5530	84760	91.316675141705	0.75
5530	85390	91.820965440105	0.5
5530	85814	92.1151162594	0.75
5530	85860	92.128350133445	0.625
5530	86781	92.941773128237	-0.125
5530	87106	93.241773128237	0.75
5530	87294	93.443298665326	0.875
5530	87364	93.483900521745	0.75
5530	87410	93.505933943523	1
5530	88560	94.505933943523	-0.25
5530	88900	94.844870514031	0
5530	89309	95.208959913607	0.125
5530	89447	95.319059913607	0.875
5530	89771	95.619059913607	0.75
5530	90516	96.220499151092	0.375
5530	90663	96.32073138605	1
5530	91166	96.727499881895	0.5
5530	91749	97.218922565376	0.5
5530	91978	97.42960548643	0.125
5530	92096	97.545342913455	-0.375
5530	92338	97.762057620407	0.75
5530	93926	99.070394101974	-0.125
5530	94059	99.170394101974	0.875
5530	94212	99.277929986778	0.875
5530	95064	99.992423193035	0
5530	96252	101.095257622836	-0.375
5530	96710	101.501282376617	0.625
5530	96853	101.60279607407	1
5530	97425	102.008233191383	0.625
5530	97960	102.517732953438	0.5
5530	98498	103.020168145717	0.5
5530	98515	103.036238670891	-0.375
5530	98784	103.220782122468	0.875
5530	98952	103.341690841207	0.75
5530	98977	103.35723547779	0.75
5530	99564	103.769249188867	0.5
5530	100040	104.069249188867	0.625
5530	100645	104.537728233462	0.625
5530	100674	104.570269692113	0.5
5530	100936	104.838259739716	0.75
5530	101013	104.870934739804	1
5530	101487	105.270934739804	0.5
5530	102025	105.678463182302	0.5
5530	102055	105.710827998461	0.625
5530	102604	106.081256648198	0.5
5530	102634	106.118433346273	0.5
5530	103052	106.424192864936	0.75
5530	103574	106.838780093364	0.25
5530	104282	107.438780093364	0.375
5530	104555	107.648764625076	0.875
5530	105004	108.049071923464	0.625
5530	106699	109.356040131994	-0.625
5530	106737	109.422618220018	0.125
5530	107349	109.924377030751	0.5
5530	107358	109.931945684885	0.5
5530	107568	110.062473069054	0.25
5530	107985	110.37838007771	0.625
5530	108253	110.588302928642	0.75
5530	108502	110.790350746453	0.875
5530	108810	111.056169497428	0.5
5530	109217	111.366269497428	0.625
5530	109462	111.566269497428	0.875
5530	110794	112.673615542265	0.625
5530	111893	113.573615542265	-0.125
5530	113486	114.954401475917	-0.25
5530	114314	115.654401475917	0.125
5530	114756	116.055270010739	0.625
5530	114978	116.262317651816	0.875
5530	115199	116.467630865628	0.875
5530	115226	116.478625931067	1
5530	115512	116.678625931067	0.875
5530	115820	116.926625881477	0.75
5530	116460	117.549888591821	0.125
5530	116634	117.749888591821	0.875
5530	117376	118.393515452432	0.5
5530	117491	118.494889536121	0.875
5530	117557	118.568090626155	0.25
5530	118488	119.2830935365	0.125
5530	118745	119.4830935365	0.875
5530	119010	119.687226278767	0.875
5530	119182	119.802576753498	0.75
5530	119699	120.202576753498	0.625
5530	119831	120.318046360188	0.875
5530	120692	121.079826789147	0.375
5530	121127	121.418046360188	-0.375
5530	121356	121.618951842519	0.875
5530	121435	121.683320310935	0.375
5530	122675	122.597349019022	-0.375
5530	123507	123.339510384376	0.625
5530	123667	123.497349019022	-0.125
5530	123898	123.707449019022	0.75
5530	124577	124.207449019022	0.5
5530	125083	124.617549019022	0.5
5530	126438	125.717549019022	-0.5
5530	127065	126.126064523283	0.625
5530	127286	126.329507498991	0.875
5530	127451	126.485732151648	0.875
5530	128091	127.005185795592	0.375
5530	128546	127.405185795592	0.625
5530	128720	127.520637925283	0.875
5530	128938	127.720637925283	0.875
5530	129173	127.928650399662	0.875
5530	129774	128.443911166412	0.375
5530	130139	128.751905798248	0.75
5530	130673	129.225274449452	0.75
5530	130966	129.532065860659	0.75
5530	131311	129.834308673697	0.75
5530	131535	130.040177994807	0.875
5530	131714	130.158277401165	1
5530	131716	130.158287864292	-0.875
5530	131858	130.27737206262	0.125
5530	131875	130.284832767965	0.75
5530	132348	130.597052200885	0.625
5530	132760	130.90004390295	0.75
5530	133544	131.61014390295	0.125
5530	133841	131.91014390295	0.75
5530	134301	132.415660479533	0.375
5530	134549	132.632751962668	0
5530	134623	132.719911076178	0.625
5530	134636	132.725820864421	0.625
5530	134737	132.837874670109	0.875
5531	29	20.01	0
5531	124	20.21	0.2
5531	410	20.6156562001	0.4
5531	661	21.022339211636	0.4
5531	686	21.033715461919	0
5531	1211	21.633715461919	0.6
5531	1799	22.139110977622	0.5
5531	2142	22.439177751557	0.3
5531	3530	23.462002748966	1
5531	4186	23.964399665738	0.5
5531	4524	24.234053884653	0.4
5531	4573	24.275624354296	0.3
5531	5421	24.987900317521	0.7
5531	6038	25.487900317521	0.5
5531	6952	26.391617839571	0.9
5531	7547	26.973608209246	1
5531	7586	27.00067049238	0.6
5531	7893	27.27491220436	0.3
5531	7900	27.277661526332	0.5
5531	7926	27.30231057857	0.3
5531	8072	27.434152287545	0.3
5531	8532	27.703805870254	0.3
5531	8681	27.807896220453	0.5
5531	9984	28.822467953066	1
5531	10224	29.022467953066	0.2
5531	10891	29.626789474989	0.6
5531	11438	30.136889474989	0.5
5531	12146	30.734304308043	0.1
5531	12362	30.934304308043	0.2
5531	13568	31.834540288368	0.9
5531	13789	32.038295000223	0.6
5531	13919	32.139781275732	0.3
5531	15036	33.049896000326	0.9
5531	15369	33.349896000326	0.3
5531	15859	33.753854317269	0.4
5531	16761	34.463954317269	0.7
5531	17065	34.763954317269	0.3
5531	17463	35.072580200449	0.3
5531	17771	35.379508168853	0.3
5531	19079	36.50986726362	1.1
5531	19637	37.00986726362	0.5
5531	20033	37.319687371668	0.3
5531	20277	37.508306578407	0.3
5531	20398	37.621279569016	0.3
5531	20640	37.823403830106	0.2
5531	21041	38.210771587046	0.7
5531	21375	38.526724056043	0.3
5531	22921	39.797838891697	0.8
5531	23699	40.497838891697	0.7
5531	24236	40.908824032972	0.4
5531	24444	41.114013389598	0.2
5531	24796	41.421549112342	0.3
5531	25226	41.830938024205	0.4
5531	25549	42.049576296644	0.2
5531	25911	42.349576296644	0.3
5531	25950	42.370928339611	0.2
5531	26343	42.682741970617	0.3
5531	26543	42.882741970617	0.2
5531	26997	43.391323855937	0.5
5531	27293	43.699946616909	0.3
5531	27636	44.003651602005	0.3
5531	28214	44.605058460181	0.6
5531	28450	44.819111684596	0.2
5531	29762	45.897122869584	0.6
5531	31173	47.197122869584	1.3
5531	32088	48.10805910674	0.9
5531	32173	48.162458165123	0.6
5531	32555	48.463978459504	0.3
5531	33382	48.976691727525	0.5
5531	34077	49.476691727525	0.5
5531	34519	49.885065825086	0.4
5531	34632	49.991621272245	0.5
5531	34962	50.306282854876	0.3
5531	35202	50.506282854876	0.2
5531	35684	50.909738398177	0.4
5531	35955	51.113890857565	0.2
5531	36198	51.315121114483	0.2
5531	36357	51.484289891842	0.4
5531	36497	51.597784296306	0.3
5531	36719	51.822912518981	0.5
5531	36968	52.041424379267	0.2
5531	37550	52.541424379267	0.5
5531	37798	52.757501661813	0.2
5531	37880	52.871973899677	0.5
5531	38756	53.590685369818	0.7
5531	39667	54.390685369818	0.8
5531	39960	54.598572754779	0.2
5531	40311	54.9071298149	0.3
5531	40516	55.116683304228	0.2
5531	40774	55.330923178649	0.2
5531	42086	56.430923178649	1.1
5531	42655	56.869989878233	0.7
5531	42799	57.040863979974	0.6
5531	43269	57.371059555758	0.5
5531	43687	57.680015870376	0.3
5531	44270	58.098193339003	0.4
5531	44487	58.298193339003	0.2
5531	44653	58.401797807196	0.1
5531	45064	58.726333312242	0.3
5531	45607	59.126333312242	0.4
5531	45816	59.308678132914	0.4
5531	45930	59.433816399689	0.3
5531	46284	59.745363362993	0.3
5531	47628	60.850607030474	0.3
5531	47851	61.045363362993	1.3
5531	48296	61.361054575917	0.5
5531	48781	61.775496388972	0.4
5531	49497	62.375496388972	0.6
5531	49900	62.677232347522	0.3
5531	50958	63.394085452787	0.7
5531	51222	63.594085452787	0.2
5531	52613	64.794636188694	1.2
5531	53170	65.197686861855	0.4
5531	53592	65.517202805787	0.3
5531	54604	66.317202805787	0.8
5531	55091	66.722887372324	0.4
5531	55976	67.524648770367	0.8
5531	56004	67.559838144946	0.8
5531	56703	68.178275351735	0.6
5531	57491	68.758404624546	0.3
5531	58827	69.865531102833	1.1
5531	60190	71.073741346518	1.2
5531	60794	71.586477429749	0.5
5531	61216	72.051976522464	1
5531	62061	72.862076522464	0.8
5531	62446	73.162076522464	0.3
5531	62915	73.549012378423	0.4
5531	62930	73.557648290871	0.4
5531	63571	73.969622391741	0.4
5531	64122	74.469622391741	0.5
5531	64446	74.681213609486	0.2
5531	64840	74.986561578941	0.3
5531	65339	75.396661578941	0.4
5531	65712	75.795324555157	0.2
5531	65991	76.005424555157	0.2
5531	66848	76.762116851931	0.5
5531	67832	77.472216851931	0.7
5531	69270	78.472216851931	1
5531	69903	78.975009924623	0.5
5531	70215	79.283372812986	0.3
5531	70667	79.697023059045	0.4
5531	70885	79.892540991781	0.6
5531	70896	79.900467260816	0.2
5531	70932	79.93124715293	0.7
5531	71626	80.446457068222	0.5
5531	71851	80.646457068222	0.2
5531	72580	81.25567220571	0.6
5531	73131	81.627403455592	0.5
5531	73428	81.845240438002	0.2
5531	74741	82.945240438002	1.1
5531	75146	83.246764310879	0.3
5531	75722	83.74689062741	0.5
5531	75785	83.823823810306	0.5
5531	76531	84.440455233049	0.6
5531	77279	84.940455233049	0.5
5531	77667	85.249363313796	0.3
5531	77940	85.452987673949	0.2
5531	77976	85.49782025293	0.2
5531	78430	85.913889495288	0.4
5531	78746	86.213889495288	0.3
5531	78999	86.429255661661	0.2
5531	79578	86.929255661661	0.5
5531	79793	87.136621538828	0.2
5531	80274	87.543674423316	0.4
5531	80622	87.849056543806	0.3
5531	81089	88.259156543806	0.4
5531	81474	88.559156543806	0.3
5531	81814	88.863582567507	0.3
5531	82644	89.580609699813	0.7
5531	83302	90.128466688347	0.2
5531	83594	90.345374528851	0.2
5531	83854	90.545374528851	0.2