file 1033798 1369933138                                         
version 2
run Stability-71-20130528-00:54:48-21385
attr configname Stability
attr datetime 20130528-00:54:48
attr experiment Stability
attr inifile omnetpp.ini
attr iterationvars $0=1e-1
attr iterationvars2 "$0=1e-1, $repetition=1"
attr measurement $0=1e-1
attr network Network
attr processid 21385
attr repetition 1
attr replication #1
attr resultdir results
attr runnumber 71
attr seedset 71
vector 6983  Network.churner  inGoingSizeSig:vector  ETV
6983	909582 124216 21 138369 20 136.773004591327 4097 0 31 125755 3881625
vector 6887  Network.dyn_peer[0]  lookupHopsSig:vector  ETV
6887	6438 8883 28 136953 20.0001 134.719507311247 301 0 18 1235 8217
vector 6888  Network.dyn_peer[0]  lookupStabilitySig:vector  ETV
6888	15321 9843 28 136953 20.0001 134.719507311247 301 -1.25 1 146.625 120.640625
vector 6889  Network.dyn_peer[0]  lookupTimeSig:vector  ETV
6889	25164 9433 28 136953 20.0001 134.719507311247 301 0 1.8 138.9 90.39
vector 6902  Network.dyn_peer[5]  lookupHopsSig:vector  ETV
6902	148352 8757 47 137204 20.0006 134.999727446151 298 0 23 1223 7859
vector 6903  Network.dyn_peer[5]  lookupStabilitySig:vector  ETV
6903	157109 9766 47 137204 20.0006 134.999727446151 298 -1.875 1 145.13888888806 115.07137345532
vector 6904  Network.dyn_peer[5]  lookupTimeSig:vector  ETV
6904	166875 9317 47 137204 20.0006 134.999727446151 298 0 2.1 137.5 86.43
vector 6911  Network.dyn_peer[8]  lookupHopsSig:vector  ETV
6911	229625 9445 60 136971 20.0009 134.764349118277 321 0 22 1239 8075
vector 6912  Network.dyn_peer[8]  lookupStabilitySig:vector  ETV
6912	239070 10538 60 136971 20.0009 134.764349118277 321 -1.75 1 166.30555554479 137.51736110449
vector 6913  Network.dyn_peer[8]  lookupTimeSig:vector  ETV
6913	249608 10048 60 136971 20.0009 134.764349118277 321 0 1.9 141.3 88.87
vector 6914  Network.dyn_peer[9]  lookupHopsSig:vector  ETV
6914	259656 9514 67 137940 20.001 135.8944946903 324 0 19 1313 8275
vector 6915  Network.dyn_peer[9]  lookupStabilitySig:vector  ETV
6915	269170 10620 67 137940 20.001 135.8944946903 324 -1.375 1 160.02777779102 124.95563271016
vector 6916  Network.dyn_peer[9]  lookupTimeSig:vector  ETV
6916	279790 10107 67 137940 20.001 135.8944946903 324 0 1.7 147.7 90.69
vector 6890  Network.dyn_peer[1]  lookupHopsSig:vector  ETV
6890	34597 9125 139 137875 20.1002 135.788100843443 310 0 15 1221 7115
vector 6891  Network.dyn_peer[1]  lookupStabilitySig:vector  ETV
6891	43722 10151 139 137875 20.1002 135.788100843443 310 -0.875 1 157.375 115.921875
vector 6892  Network.dyn_peer[1]  lookupTimeSig:vector  ETV
6892	53873 9703 139 137875 20.1002 135.788100843443 310 0 1.4 139.5 82.11
vector 6893  Network.dyn_peer[2]  lookupHopsSig:vector  ETV
6893	63576 8699 144 137465 20.1003 135.273440379713 296 0 19 1316 9112
vector 6894  Network.dyn_peer[2]  lookupStabilitySig:vector  ETV
6894	72275 9678 144 137465 20.1003 135.273440379713 296 -1.375 1 131.54166665673 109.4288194312
vector 6895  Network.dyn_peer[2]  lookupTimeSig:vector  ETV
6895	81953 9251 144 137465 20.1003 135.273440379713 296 0.1 1.8 145.4 98.08
vector 6896  Network.dyn_peer[3]  lookupHopsSig:vector  ETV
6896	91204 8670 149 138160 20.1004 136.21713291308 295 0 23 1235 8477
vector 6897  Network.dyn_peer[3]  lookupStabilitySig:vector  ETV
6897	99874 9642 149 138160 20.1004 136.21713291308 295 -1.875 1 140.7499999702 118.81867281228
vector 6898  Network.dyn_peer[3]  lookupTimeSig:vector  ETV
6898	109516 9218 149 138160 20.1004 136.21713291308 295 0 2 136.2 88.26
vector 6899  Network.dyn_peer[4]  lookupHopsSig:vector  ETV
6899	118734 9334 154 138188 20.1005 136.280011266623 317 0 26 1214 7890
vector 6900  Network.dyn_peer[4]  lookupStabilitySig:vector  ETV
6900	128068 10352 154 138188 20.1005 136.280011266623 317 -2.25 1 165.25 136.78125
vector 6901  Network.dyn_peer[4]  lookupTimeSig:vector  ETV
6901	138420 9932 154 138188 20.1005 136.280011266623 317 0 2.4 139.4 88
vector 6905  Network.dyn_peer[6]  lookupHopsSig:vector  ETV
6905	176192 8179 160 137268 20.1007 135.071639666612 278 0 18 1198 8006
vector 6906  Network.dyn_peer[6]  lookupStabilitySig:vector  ETV
6906	184371 9081 160 137268 20.1007 135.071639666612 278 -1.25 1 128.25 103.59375
vector 6907  Network.dyn_peer[6]  lookupTimeSig:vector  ETV
6907	193452 8689 160 137268 20.1007 135.071639666612 278 0 1.7 132.3 86.05
vector 6917  Network.dyn_peer[10]  lookupHopsSig:vector  ETV
6917	289897 8438 168 137998 20.1011 135.979911266623 287 0 27 1198 8198
vector 6918  Network.dyn_peer[10]  lookupStabilitySig:vector  ETV
6918	298335 9405 168 137998 20.1011 135.979911266623 287 -2.375 1 137.30555555224 115.65239197163
vector 6919  Network.dyn_peer[10]  lookupTimeSig:vector  ETV
6919	307740 8965 168 137998 20.1011 135.979911266623 287 0 2.5 133.4 87.5
vector 6926  Network.dyn_peer[13]  lookupHopsSig:vector  ETV
6926	374123 8463 175 138254 20.1014 136.387229247044 287 0 19 1267 8611
vector 6927  Network.dyn_peer[13]  lookupStabilitySig:vector  ETV
6927	382586 9393 175 138254 20.1014 136.387229247044 287 -1.375 1 128.625 104.796875
vector 6928  Network.dyn_peer[13]  lookupTimeSig:vector  ETV
6928	391979 8985 175 138254 20.1014 136.387229247044 287 0 1.7 141.4 94
vector 6935  Network.dyn_peer[16]  lookupHopsSig:vector  ETV
6935	456369 8849 182 137770 20.1017 135.604432914813 300 0 16 1262 8042
vector 6936  Network.dyn_peer[16]  lookupStabilitySig:vector  ETV
6936	465218 9820 182 137770 20.1017 135.604432914813 300 -1 1 142.3749999851 110.23244597919
vector 6937  Network.dyn_peer[16]  lookupTimeSig:vector  ETV
6937	475038 9409 182 137770 20.1017 135.604432914813 300 0 1.5 141.4 89.5
vector 6944  Network.dyn_peer[19]  lookupHopsSig:vector  ETV
6944	543375 9041 189 138240 20.102 136.378031182912 307 0 20 1345 9189
vector 6945  Network.dyn_peer[19]  lookupStabilitySig:vector  ETV
6945	552416 10078 189 138240 20.102 136.378031182912 307 -1.5 1 138.94444441795 114.38503084065
vector 6946  Network.dyn_peer[19]  lookupTimeSig:vector  ETV
6946	562494 9609 189 138240 20.102 136.378031182912 307 0 1.7 148.6 97.1
vector 6947  Network.dyn_peer[20]  lookupHopsSig:vector  ETV
6947	572103 9036 194 138132 20.1021 136.196798715992 307 0 18 1224 7946
vector 6948  Network.dyn_peer[20]  lookupStabilitySig:vector  ETV
6948	581139 10092 194 138132 20.1021 136.196798715992 307 -1.25 1 154.22222220898 125.27932096926
vector 6949  Network.dyn_peer[20]  lookupTimeSig:vector  ETV
6949	591231 9626 194 138132 20.1021 136.196798715992 307 0.1 1.7 137.7 85.01
vector 6962  Network.dyn_peer[25]  lookupHopsSig:vector  ETV
6962	716097 8417 203 138106 20.1026 136.176548403799 286 0 17 1255 8373
vector 6963  Network.dyn_peer[25]  lookupStabilitySig:vector  ETV
6963	724514 9355 203 138106 20.1026 136.176548403799 286 -1.125 1 129.34722217917 102.99787810923
vector 6964  Network.dyn_peer[25]  lookupTimeSig:vector  ETV
6964	733869 8948 203 138106 20.1026 136.176548403799 286 0 1.4 138.6 89.52
vector 6923  Network.dyn_peer[12]  lookupHopsSig:vector  ETV
6923	344530 9308 233 137515 20.2013 135.294925558008 316 0 18 1262 8124
vector 6924  Network.dyn_peer[12]  lookupStabilitySig:vector  ETV
6924	353838 10371 233 137515 20.2013 135.294925558008 316 -1.25 1 158.38888883591 127.5513116813
vector 6925  Network.dyn_peer[12]  lookupTimeSig:vector  ETV
6925	364209 9914 233 137515 20.2013 135.294925558008 316 0 1.6 142 88.18
vector 6929  Network.dyn_peer[14]  lookupHopsSig:vector  ETV
6929	400964 8065 238 137479 20.2015 135.2767019405 274 0 23 1242 8830
vector 6930  Network.dyn_peer[14]  lookupStabilitySig:vector  ETV
6930	409029 8960 238 137479 20.2015 135.2767019405 274 -1.875 1 118.88888883591 101.41859569079
vector 6931  Network.dyn_peer[14]  lookupTimeSig:vector  ETV
6931	417989 8572 238 137479 20.2015 135.2767019405 274 0.1 1.9 136.3 92.81
vector 6932  Network.dyn_peer[15]  lookupHopsSig:vector  ETV
6932	426561 9378 243 138224 20.2016 136.363854958179 318 0 26 1347 9799
vector 6933  Network.dyn_peer[15]  lookupStabilitySig:vector  ETV
6933	435939 10459 243 138224 20.2016 136.363854958179 318 -2.25 1 149.68055555224 134.41801697163
vector 6934  Network.dyn_peer[15]  lookupTimeSig:vector  ETV
6934	446398 9971 243 138224 20.2016 136.363854958179 318 0 2.4 150.2 103.12
vector 6956  Network.dyn_peer[23]  lookupHopsSig:vector  ETV
6956	658270 8699 255 137150 20.2024 134.976171069341 295 0 21 1224 8152
vector 6957  Network.dyn_peer[23]  lookupStabilitySig:vector  ETV
6957	666969 9687 255 137150 20.2024 134.976171069341 295 -1.625 1 142 116.375
vector 6958  Network.dyn_peer[23]  lookupTimeSig:vector  ETV
6958	676656 9258 255 137150 20.2024 134.976171069341 295 0 2.1 136.4 86.88
vector 6965  Network.dyn_peer[26]  lookupHopsSig:vector  ETV
6965	742817 8987 262 137251 20.2027 135.062726213312 306 0 18 1320 8886
vector 6966  Network.dyn_peer[26]  lookupStabilitySig:vector  ETV
6966	751804 9988 262 137251 20.2027 135.062726213312 306 -1.25 1 141 114.84375
vector 6967  Network.dyn_peer[26]  lookupTimeSig:vector  ETV
6967	761792 9561 262 137251 20.2027 135.062726213312 306 0 1.7 148.7 98.19
vector 6977  Network.dyn_peer[30]  lookupHopsSig:vector  ETV
6977	854833 8975 270 138367 20.2031 136.769217270454 305 0 23 1313 8935
vector 6978  Network.dyn_peer[30]  lookupStabilitySig:vector  ETV
6978	863808 9921 270 138367 20.2031 136.769217270454 305 -1.875 1 140.875 116.359375
vector 6979  Network.dyn_peer[30]  lookupTimeSig:vector  ETV
6979	873729 9538 270 138367 20.2031 136.769217270454 305 0 2 144.5 94.55
vector 6908  Network.dyn_peer[7]  lookupHopsSig:vector  ETV
6908	202141 8666 288 137208 20.3008 135.002983295263 294 0 19 1213 7851
vector 6909  Network.dyn_peer[7]  lookupStabilitySig:vector  ETV
6909	210807 9613 288 137208 20.3008 135.002983295263 294 -1.375 1 142.43055555224 113.48051697163
vector 6910  Network.dyn_peer[7]  lookupTimeSig:vector  ETV
6910	220420 9205 288 137208 20.3008 135.002983295263 294 0 1.6 134.5 84.57
vector 6938  Network.dyn_peer[17]  lookupHopsSig:vector  ETV
6938	484447 9931 302 137677 20.3018 135.486649206475 338 0 19 1246 7258
vector 6939  Network.dyn_peer[17]  lookupStabilitySig:vector  ETV
6939	494378 11063 302 137677 20.3018 135.486649206475 338 -1.375 1 182.36111107469 140.01697527185
vector 6940  Network.dyn_peer[17]  lookupTimeSig:vector  ETV
6940	505441 10583 302 137677 20.3018 135.486649206475 338 0 1.8 143.2 83.9
vector 6941  Network.dyn_peer[18]  lookupHopsSig:vector  ETV
6941	516024 8616 307 137404 20.3019 135.197793875837 293 0 25 1226 7914
vector 6942  Network.dyn_peer[18]  lookupStabilitySig:vector  ETV
6942	524640 9575 307 137404 20.3019 135.197793875837 293 -2.125 1 139.80555555224 110.21489197163
vector 6943  Network.dyn_peer[18]  lookupTimeSig:vector  ETV
6943	534215 9160 307 137404 20.3019 135.197793875837 293 0 2.3 136.9 85.81
vector 6968  Network.dyn_peer[27]  lookupHopsSig:vector  ETV
6968	771353 8849 321 137069 20.3028 134.878523263982 302 0 17 1230 7842
vector 6969  Network.dyn_peer[27]  lookupStabilitySig:vector  ETV
6969	780202 9825 321 137069 20.3028 134.878523263982 302 -1.125 1 148.27777777612 117.07368826903
vector 6970  Network.dyn_peer[27]  lookupTimeSig:vector  ETV
6970	790027 9418 321 137069 20.3028 134.878523263982 302 0 1.6 139.1 87.27
vector 6971  Network.dyn_peer[28]  lookupHopsSig:vector  ETV
6971	799445 8175 326 137385 20.3029 135.188018397777 278 0 24 1195 8205
vector 6972  Network.dyn_peer[28]  lookupStabilitySig:vector  ETV
6972	807620 9081 326 137385 20.3029 135.188018397777 278 -2 1 128.70833331347 107.50173609787
vector 6973  Network.dyn_peer[28]  lookupTimeSig:vector  ETV
6973	816701 8699 326 137385 20.3029 135.188018397777 278 0 2.1 131.4 85.4
vector 6974  Network.dyn_peer[29]  lookupHopsSig:vector  ETV
6974	825400 9272 331 138352 20.303 136.724473098763 314 0 24 1269 8933
vector 6975  Network.dyn_peer[29]  lookupStabilitySig:vector  ETV
6975	834672 10308 331 138352 20.303 136.724473098763 314 -2 1 155.40277777612 136.37056326903
vector 6976  Network.dyn_peer[29]  lookupTimeSig:vector  ETV
6976	844980 9853 331 138352 20.303 136.724473098763 314 0 2.2 141.1 93.07
vector 6980  Network.dyn_peer[31]  lookupHopsSig:vector  ETV
6980	883267 8275 337 137548 20.3032 135.308692557653 281 0 19 1178 7676
vector 6981  Network.dyn_peer[31]  lookupStabilitySig:vector  ETV
6981	891542 9236 337 137548 20.3032 135.308692557653 281 -1.375 1 134.05555552244 106.45177464868
vector 6982  Network.dyn_peer[31]  lookupTimeSig:vector  ETV
6982	900778 8804 337 137548 20.3032 135.308692557653 281 0 1.6 132 83.82
vector 6920  Network.dyn_peer[11]  lookupHopsSig:vector  ETV
6920	316705 8753 360 137958 20.4012 135.904171610059 297 0 22 1330 10574
vector 6921  Network.dyn_peer[11]  lookupStabilitySig:vector  ETV
6921	325458 9781 360 137958 20.4012 135.904171610059 297 -1.75 1 130.8749999851 129.89988423829
vector 6922  Network.dyn_peer[11]  lookupTimeSig:vector  ETV
6922	335239 9291 360 137958 20.4012 135.904171610059 297 0 2.1 145 107.4
vector 6950  Network.dyn_peer[21]  lookupHopsSig:vector  ETV
6950	600857 8757 372 137193 20.4022 134.999109996347 298 0 18 1266 8122
vector 6951  Network.dyn_peer[21]  lookupStabilitySig:vector  ETV
6951	609614 9779 372 137193 20.4022 134.999109996347 298 -1.25 1 139.80555554479 108.48456788652
vector 6952  Network.dyn_peer[21]  lookupTimeSig:vector  ETV
6952	619393 9314 372 137193 20.4022 134.999109996347 298 0 1.8 141.1 90.33
vector 6953  Network.dyn_peer[22]  lookupHopsSig:vector  ETV
6953	628707 9306 377 138297 20.4023 136.46356287082 316 0 18 1308 8750
vector 6954  Network.dyn_peer[22]  lookupStabilitySig:vector  ETV
6954	638013 10363 377 138297 20.4023 136.46356287082 316 -1.25 1 152.63888885826 125.8587962676
vector 6955  Network.dyn_peer[22]  lookupTimeSig:vector  ETV
6955	648376 9894 377 138297 20.4023 136.46356287082 316 0 1.7 146.3 94.05
vector 6959  Network.dyn_peer[24]  lookupHopsSig:vector  ETV
6959	685914 9502 428 137915 20.5025 135.856806592706 324 0 15 1269 7635
vector 6960  Network.dyn_peer[24]  lookupStabilitySig:vector  ETV
6960	695416 10569 428 137915 20.5025 135.856806592706 324 -0.875 1 165.55555552244 126.18827157256
vector 6961  Network.dyn_peer[24]  lookupTimeSig:vector  ETV
6961	705985 10112 428 137915 20.5025 135.856806592706 324 0 1.5 141.9 83.27
