version 2
run Stability-36-20130528-00:52:23-21385
attr configname Stability
attr datetime 20130528-00:52:23
attr experiment Stability
attr inifile omnetpp.ini
attr iterationvars $0=1e3
attr iterationvars2 "$0=1e3, $repetition=6"
attr measurement $0=1e3
attr network Network
attr processid 21385
attr repetition 6
attr replication #6
attr resultdir results
attr runnumber 36
attr seedset 36

vector 3588  Network.churner  inGoingSizeSig:vector  ETV
vector 3492  Network.dyn_peer[0]  lookupHopsSig:vector  ETV
vector 3493  Network.dyn_peer[0]  lookupStabilitySig:vector  ETV
vector 3494  Network.dyn_peer[0]  lookupTimeSig:vector  ETV
vector 3495  Network.dyn_peer[1]  lookupHopsSig:vector  ETV
vector 3496  Network.dyn_peer[1]  lookupStabilitySig:vector  ETV
vector 3497  Network.dyn_peer[1]  lookupTimeSig:vector  ETV
vector 3498  Network.dyn_peer[2]  lookupHopsSig:vector  ETV
vector 3499  Network.dyn_peer[2]  lookupStabilitySig:vector  ETV
vector 3500  Network.dyn_peer[2]  lookupTimeSig:vector  ETV
vector 3501  Network.dyn_peer[3]  lookupHopsSig:vector  ETV
vector 3502  Network.dyn_peer[3]  lookupStabilitySig:vector  ETV
vector 3503  Network.dyn_peer[3]  lookupTimeSig:vector  ETV
vector 3504  Network.dyn_peer[4]  lookupHopsSig:vector  ETV
vector 3505  Network.dyn_peer[4]  lookupStabilitySig:vector  ETV
vector 3506  Network.dyn_peer[4]  lookupTimeSig:vector  ETV
vector 3507  Network.dyn_peer[5]  lookupHopsSig:vector  ETV
vector 3508  Network.dyn_peer[5]  lookupStabilitySig:vector  ETV
vector 3509  Network.dyn_peer[5]  lookupTimeSig:vector  ETV
vector 3510  Network.dyn_peer[6]  lookupHopsSig:vector  ETV
vector 3511  Network.dyn_peer[6]  lookupStabilitySig:vector  ETV
vector 3512  Network.dyn_peer[6]  lookupTimeSig:vector  ETV
vector 3513  Network.dyn_peer[7]  lookupHopsSig:vector  ETV
vector 3514  Network.dyn_peer[7]  lookupStabilitySig:vector  ETV
vector 3515  Network.dyn_peer[7]  lookupTimeSig:vector  ETV
vector 3516  Network.dyn_peer[8]  lookupHopsSig:vector  ETV
vector 3517  Network.dyn_peer[8]  lookupStabilitySig:vector  ETV
vector 3518  Network.dyn_peer[8]  lookupTimeSig:vector  ETV
vector 3519  Network.dyn_peer[9]  lookupHopsSig:vector  ETV
vector 3520  Network.dyn_peer[9]  lookupStabilitySig:vector  ETV
vector 3521  Network.dyn_peer[9]  lookupTimeSig:vector  ETV
vector 3522  Network.dyn_peer[10]  lookupHopsSig:vector  ETV
vector 3523  Network.dyn_peer[10]  lookupStabilitySig:vector  ETV
vector 3524  Network.dyn_peer[10]  lookupTimeSig:vector  ETV
vector 3525  Network.dyn_peer[11]  lookupHopsSig:vector  ETV
vector 3526  Network.dyn_peer[11]  lookupStabilitySig:vector  ETV
vector 3527  Network.dyn_peer[11]  lookupTimeSig:vector  ETV
vector 3528  Network.dyn_peer[12]  lookupHopsSig:vector  ETV
vector 3529  Network.dyn_peer[12]  lookupStabilitySig:vector  ETV
vector 3530  Network.dyn_peer[12]  lookupTimeSig:vector  ETV
vector 3531  Network.dyn_peer[13]  lookupHopsSig:vector  ETV
vector 3532  Network.dyn_peer[13]  lookupStabilitySig:vector  ETV
vector 3533  Network.dyn_peer[13]  lookupTimeSig:vector  ETV
vector 3534  Network.dyn_peer[14]  lookupHopsSig:vector  ETV
vector 3535  Network.dyn_peer[14]  lookupStabilitySig:vector  ETV
vector 3536  Network.dyn_peer[14]  lookupTimeSig:vector  ETV
vector 3537  Network.dyn_peer[15]  lookupHopsSig:vector  ETV
vector 3538  Network.dyn_peer[15]  lookupStabilitySig:vector  ETV
vector 3539  Network.dyn_peer[15]  lookupTimeSig:vector  ETV
vector 3540  Network.dyn_peer[16]  lookupHopsSig:vector  ETV
vector 3541  Network.dyn_peer[16]  lookupStabilitySig:vector  ETV
vector 3542  Network.dyn_peer[16]  lookupTimeSig:vector  ETV
vector 3543  Network.dyn_peer[17]  lookupHopsSig:vector  ETV
vector 3544  Network.dyn_peer[17]  lookupStabilitySig:vector  ETV
vector 3545  Network.dyn_peer[17]  lookupTimeSig:vector  ETV
vector 3546  Network.dyn_peer[18]  lookupHopsSig:vector  ETV
vector 3547  Network.dyn_peer[18]  lookupStabilitySig:vector  ETV
vector 3548  Network.dyn_peer[18]  lookupTimeSig:vector  ETV
vector 3549  Network.dyn_peer[19]  lookupHopsSig:vector  ETV
vector 3550  Network.dyn_peer[19]  lookupStabilitySig:vector  ETV
vector 3551  Network.dyn_peer[19]  lookupTimeSig:vector  ETV
vector 3552  Network.dyn_peer[20]  lookupHopsSig:vector  ETV
vector 3553  Network.dyn_peer[20]  lookupStabilitySig:vector  ETV
vector 3554  Network.dyn_peer[20]  lookupTimeSig:vector  ETV
vector 3555  Network.dyn_peer[21]  lookupHopsSig:vector  ETV
vector 3556  Network.dyn_peer[21]  lookupStabilitySig:vector  ETV
vector 3557  Network.dyn_peer[21]  lookupTimeSig:vector  ETV
vector 3558  Network.dyn_peer[22]  lookupHopsSig:vector  ETV
vector 3559  Network.dyn_peer[22]  lookupStabilitySig:vector  ETV
vector 3560  Network.dyn_peer[22]  lookupTimeSig:vector  ETV
vector 3561  Network.dyn_peer[23]  lookupHopsSig:vector  ETV
vector 3562  Network.dyn_peer[23]  lookupStabilitySig:vector  ETV
vector 3563  Network.dyn_peer[23]  lookupTimeSig:vector  ETV
vector 3564  Network.dyn_peer[24]  lookupHopsSig:vector  ETV
vector 3565  Network.dyn_peer[24]  lookupStabilitySig:vector  ETV
vector 3566  Network.dyn_peer[24]  lookupTimeSig:vector  ETV
vector 3567  Network.dyn_peer[25]  lookupHopsSig:vector  ETV
vector 3568  Network.dyn_peer[25]  lookupStabilitySig:vector  ETV
vector 3569  Network.dyn_peer[25]  lookupTimeSig:vector  ETV
vector 3570  Network.dyn_peer[26]  lookupHopsSig:vector  ETV
vector 3571  Network.dyn_peer[26]  lookupStabilitySig:vector  ETV
vector 3572  Network.dyn_peer[26]  lookupTimeSig:vector  ETV
vector 3573  Network.dyn_peer[27]  lookupHopsSig:vector  ETV
vector 3574  Network.dyn_peer[27]  lookupStabilitySig:vector  ETV
vector 3575  Network.dyn_peer[27]  lookupTimeSig:vector  ETV
vector 3576  Network.dyn_peer[28]  lookupHopsSig:vector  ETV
vector 3577  Network.dyn_peer[28]  lookupStabilitySig:vector  ETV
vector 3578  Network.dyn_peer[28]  lookupTimeSig:vector  ETV
vector 3579  Network.dyn_peer[29]  lookupHopsSig:vector  ETV
vector 3580  Network.dyn_peer[29]  lookupStabilitySig:vector  ETV
vector 3581  Network.dyn_peer[29]  lookupTimeSig:vector  ETV
vector 3582  Network.dyn_peer[30]  lookupHopsSig:vector  ETV
vector 3583  Network.dyn_peer[30]  lookupStabilitySig:vector  ETV
vector 3584  Network.dyn_peer[30]  lookupTimeSig:vector  ETV
vector 3585  Network.dyn_peer[31]  lookupHopsSig:vector  ETV
vector 3586  Network.dyn_peer[31]  lookupStabilitySig:vector  ETV
vector 3587  Network.dyn_peer[31]  lookupTimeSig:vector  ETV
3492	29	21	0
3492	33	21.3	2
3492	37	21.502156180334	1
3492	42	21.706954300384	1
3492	1044	53.2	2
3492	1049	53.413329808206	1
3492	1053	53.619867581675	1
3492	1061	53.840232109469	1
3492	2121	85.2	2
3492	2125	85.5	2
3492	2129	85.705120365894	1
3492	2134	85.915912802297	1
3492	3148	117.1	1
3492	3151	117.3	1
3492	3157	117.612058045458	2
3492	3162	117.819793964685	1
3492	4179	149.2	2
3492	4182	149.4	1
3492	4187	149.707701562868	2
3492	4191	149.910095746893	1
3492	5200	181.1	1
3492	5203	181.3	1
3492	5208	181.510116630566	1
3492	5213	181.714432587222	1
3492	6267	213.1	1
3492	6274	213.410599891011	2
3492	6278	213.611910479295	1
3492	6283	213.826960447402	1
3492	7254	245.2	2
3492	7257	245.4	1
3492	7261	245.606486143972	1
3492	7266	245.82120992934	1
3492	8293	277.1	1
3492	8298	277.318399230132	1
3492	8304	277.543018450861	1
3492	8311	277.765726736552	1
3492	9316	309.1	1
3492	9319	309.3	1
3492	9324	309.509439325057	1
3492	9328	309.717967235195	1
3492	10332	341.2	2
3492	10336	341.407554368365	1
3492	10340	341.614415857652	1
3492	10346	341.918542603246	2
3492	11394	373.1	1
3492	11398	373.4	2
3492	11403	373.705609121541	2
3492	11407	373.913333227796	1
3492	12450	405.1	1
3492	12453	405.3	1
3492	12458	405.600329120068	2
3492	12463	405.810880463958	1
3492	13497	437	0
3492	13501	437.3	2
3492	13505	437.501355522021	1
3492	13510	437.805444030696	2
3492	14526	469.3	3
3492	14529	469.5	1
3492	14534	469.801805139444	2
3492	14543	470.10487818627	2
3492	15612	501.2	2
3492	15616	501.406664560073	1
3492	15622	501.719060251657	2
3492	15630	502.022218402493	2
3492	16636	533.2	2
3492	16640	533.5	2
3492	16646	533.709872485402	1
3492	16651	533.913880631907	1
3492	17659	565.1	1
3492	17663	565.4	2
3492	17668	565.616801975124	1
3492	17672	565.820240610643	1
3492	18727	597.1	1
3492	18730	597.3	1
3492	18734	597.509671701032	1
3492	18740	597.718792840169	1
3492	19751	629.1	1
3492	19755	629.4	2
3492	19759	629.609505170315	1
3492	19764	629.82419789481	1
3492	20771	661.1	1
3492	20776	661.40867881356	2
3492	20780	661.611324084566	1
3492	20784	661.814096145671	1
3492	21806	693.3	3
3492	21809	693.5	1
3492	21813	693.708228593198	1
3492	21824	694.036377517135	2
3492	22860	725.3	3
3492	22863	725.5	1
3492	22870	725.718403486181	1
3492	22874	725.922530424389	1
3492	23892	757.2	2
3492	23896	757.5	2
3492	23906	757.736260284319	1
3492	23924	758.087799027664	2
3492	24934	789.2	2
3492	24938	789.5	2
3492	24946	789.71842166031	1
3492	24950	789.926409800473	1
3492	25975	821.1	1
3492	25978	821.3	1
3492	25983	821.605900012142	2
3492	25989	821.823004263699	1
3492	26981	853.2	2
3492	26988	853.510802999263	2
3492	26992	853.711981911725	1
3492	26996	853.92069246107	1
3492	28026	885.2	2
3492	28029	885.4	1
3492	28035	885.714032825551	2
3492	28039	885.923360234071	1
3492	29051	917.1	1
3492	29055	917.30715100086	1
3492	29060	917.615388731085	2
3492	29065	917.825972343517	1
3492	30088	949	0
3492	30091	949.2	1
3492	30097	949.508330286175	2
3492	30103	949.723088469745	1
3492	31125	981	0
3492	31128	981.2	1
3492	31138	981.426339788625	1
3492	31145	981.741530711167	2
3492	32205	1013.1	1
3492	32208	1013.3	1
3492	32212	1013.506290715732	1
3492	32220	1013.725761601364	1
3492	33248	1045.1	1
3492	33252	1045.306068955368	1
3492	33256	1045.514263943572	1
3492	33263	1045.833679565561	2
3492	34260	1077	0
3492	34264	1077.3	2
3492	34269	1077.606260096456	2
3492	34273	1077.810233281666	1
3492	35320	1109	0
3492	35324	1109.3	2
3492	35328	1109.50105062525	1
3492	35332	1109.703695109595	1
3492	36355	1141.1	1
3492	36358	1141.3	1
3492	36362	1141.5047924738	1
3492	36367	1141.714369909643	1
3492	37396	1173.2	2
3492	37400	1173.408911165781	1
3492	37404	1173.618077817242	1
3492	37409	1173.822603801633	1
3492	38433	1205.1	1
3492	38437	1205.4	2
3492	38443	1205.608530889252	1
3492	38447	1205.808832548044	1
3492	39453	1237.3	3
3492	39456	1237.5	1
3492	39460	1237.701084059511	1
3492	39468	1238.005967377854	2
3492	40486	1269.2	2
3492	40490	1269.5	2
3492	40494	1269.709771122927	1
3492	40504	1270.024105508349	2
3492	41508	1301.1	1
3492	41511	1301.3	1
3492	41515	1301.506916573715	1
3492	41520	1301.720785211856	1
3492	42547	1333.1	1
3492	42551	1333.4	2
3492	42556	1333.70852661771	2
3492	42561	1333.917821925035	1
3492	43607	1365.2	2
3492	43612	1365.506326899577	2
3492	43616	1365.712622149479	1
3492	43620	1365.915974308121	1
3492	44608	1397.1	1
3492	44613	1397.40096207861	2
3492	44617	1397.608137937834	1
3492	44621	1397.810996870497	1
3492	45635	1429.1	1
3492	45639	1429.4	2
3492	45644	1429.703156717431	2
3492	45655	1430.024733301609	2
3492	46682	1461.1	1
3492	46685	1461.3	1
3492	46695	1461.529320462558	1
3492	46699	1461.732280461699	1
3492	47726	1493	0
3492	47729	1493.2	1
3492	47733	1493.407865399993	1
3492	47738	1493.717306546596	2
3492	48762	1525.2	2
3492	48765	1525.4	1
3492	48772	1525.706935081879	2
3492	48776	1525.907335252118	1
3492	49793	1557.1	1
3492	49797	1557.4	2
3492	49802	1557.707556982294	2
3492	49806	1557.916992826573	1
3492	50849	1589.2	2
3492	50853	1589.5	2
3492	50857	1589.702738422197	1
3492	50870	1590.010169348749	2
3492	51858	1621.1	1
3492	51862	1621.4	2
3492	51867	1621.705105715121	2
3492	51872	1621.915694847394	1
3492	52876	1653.1	1
3492	52879	1653.3	1
3492	52883	1653.503457776051	1
3492	52892	1653.736786514698	1
3492	53925	1685.1	1
3492	53931	1685.410160042756	2
3492	53935	1685.618342669299	1
3492	53939	1685.827537786264	1
3492	54953	1717.1	1
3492	54960	1717.316208722096	1
3492	54964	1717.522739532611	1
3492	54968	1717.728221449237	1
3492	55996	1749.2	2
3492	56000	1749.5	2
3492	56005	1749.800681435936	2
3492	56030	1750.081022296485	1
3492	57072	1781.2	2
3492	57076	1781.5	2
3492	57081	1781.716035339712	1
3492	57085	1781.92024139361	1
3492	58099	1813.2	2
3492	58102	1813.4	1
3492	58107	1813.611108639447	1
3492	58112	1813.825183497007	1
3492	59162	1845.1	1
3492	59165	1845.3	1
3492	59171	1845.605334118948	2
3492	59177	1845.817708318405	1
3492	60198	1877.2	2
3492	60203	1877.507951455756	2
3492	60208	1877.810418975375	2
3492	60215	1878.015409784471	1
3492	61259	1909.1	1
3492	61262	1909.3	1
3492	61267	1909.602494419894	2
3492	61273	1909.820068056649	1
3492	62281	1941.1	1
3492	62285	1941.4	2
3492	62290	1941.701174343368	2
3492	62296	1941.908371583695	1
3492	63347	1973.3	3
3492	63350	1973.5	1
3492	63354	1973.706808899655	1
3492	63364	1974.016432606807	2
3492	64403	2005.2	2
3492	64407	2005.5	2
3492	64413	2005.715383676783	1
3492	64423	2005.95861989943	1
3492	65459	2037.2	2
3492	65463	2037.5	2
3492	65467	2037.707873159013	1
3492	65477	2038.028125277234	2
3493	29	21	1
3493	33	21.3	0.75
3493	37	21.502156180334	0.875
3493	42	21.706954300384	0.875
3493	1044	53.2	0.75
3493	1049	53.413329808206	0.875
3493	1053	53.619867581675	0.875
3493	1061	53.840232109469	0.875
3493	2121	85.2	0.75
3493	2125	85.5	0.75
3493	2129	85.705120365894	0.875
3493	2134	85.915912802297	0.875
3493	3148	117.1	0.875
3493	3151	117.3	0.875
3493	3157	117.612058045458	0.75
3493	3162	117.819793964685	0.875
3493	4179	149.2	0.75
3493	4182	149.4	0.875
3493	4187	149.707701562868	0.75
3493	4191	149.910095746893	0.875
3493	5200	181.1	0.875
3493	5203	181.3	0.875
3493	5208	181.510116630566	0.875
3493	5213	181.714432587222	0.875
3493	6267	213.1	0.875
3493	6274	213.410599891011	0.75
3493	6278	213.611910479295	0.875
3493	6283	213.826960447402	0.875
3493	7254	245.2	0.75
3493	7257	245.4	0.875
3493	7261	245.606486143972	0.875
3493	7266	245.82120992934	0.875
3493	8293	277.1	0.875
3493	8298	277.318399230132	0.875
3493	8304	277.543018450861	0.875
3493	8311	277.765726736552	0.875
3493	9316	309.1	0.875
3493	9319	309.3	0.875
3493	9324	309.509439325057	0.875
3493	9328	309.717967235195	0.875
3493	10332	341.2	0.75
3493	10336	341.407554368365	0.875
3493	10340	341.614415857652	0.875
3493	10346	341.918542603246	0.75
3493	11394	373.1	0.875
3493	11398	373.4	0.75
3493	11403	373.705609121541	0.75
3493	11407	373.913333227796	0.875
3493	12450	405.1	0.875
3493	12453	405.3	0.875
3493	12458	405.600329120068	0.75
3493	12463	405.810880463958	0.875
3493	13497	437	1
3493	13501	437.3	0.75
3493	13505	437.501355522021	0.875
3493	13510	437.805444030696	0.75
3493	14526	469.3	0.625
3493	14529	469.5	0.875
3493	14534	469.801805139444	0.75
3493	14543	470.10487818627	0.75
3493	15612	501.2	0.75
3493	15616	501.406664560073	0.875
3493	15622	501.719060251657	0.75
3493	15630	502.022218402493	0.75
3493	16636	533.2	0.75
3493	16640	533.5	0.75
3493	16646	533.709872485402	0.875
3493	16651	533.913880631907	0.875
3493	17659	565.1	0.875
3493	17663	565.4	0.75
3493	17668	565.616801975124	0.875
3493	17672	565.820240610643	0.875
3493	18727	597.1	0.875
3493	18730	597.3	0.875
3493	18734	597.509671701032	0.875
3493	18740	597.718792840169	0.875
3493	19751	629.1	0.875
3493	19755	629.4	0.75
3493	19759	629.609505170315	0.875
3493	19764	629.82419789481	0.875
3493	20771	661.1	0.875
3493	20776	661.40867881356	0.75
3493	20780	661.611324084566	0.875
3493	20784	661.814096145671	0.875
3493	21806	693.3	0.625
3493	21809	693.5	0.875
3493	21813	693.708228593198	0.875
3493	21824	694.036377517135	0.75
3493	22860	725.3	0.625
3493	22863	725.5	0.875
3493	22870	725.718403486181	0.875
3493	22874	725.922530424389	0.875
3493	23892	757.2	0.75
3493	23896	757.5	0.75
3493	23906	757.736260284319	0.875
3493	23924	758.087799027664	0.75
3493	24934	789.2	0.75
3493	24938	789.5	0.75
3493	24946	789.71842166031	0.875
3493	24950	789.926409800473	0.875
3493	25975	821.1	0.875
3493	25978	821.3	0.875
3493	25983	821.605900012142	0.75
3493	25989	821.823004263699	0.875
3493	26981	853.2	0.75
3493	26988	853.510802999263	0.75
3493	26992	853.711981911725	0.875
3493	26996	853.92069246107	0.875
3493	28026	885.2	0.75
3493	28029	885.4	0.875
3493	28035	885.714032825551	0.75
3493	28039	885.923360234071	0.875
3493	29051	917.1	0.875
3493	29055	917.30715100086	0.875
3493	29060	917.615388731085	0.75
3493	29065	917.825972343517	0.875
3493	30088	949	1
3493	30091	949.2	0.875
3493	30097	949.508330286175	0.75
3493	30103	949.723088469745	0.875
3493	31125	981	1
3493	31128	981.2	0.875
3493	31138	981.426339788625	0.875
3493	31145	981.741530711167	0.75
3493	32205	1013.1	0.875
3493	32208	1013.3	0.875
3493	32212	1013.506290715732	0.875
3493	32220	1013.725761601364	0.875
3493	33248	1045.1	0.875
3493	33252	1045.306068955368	0.875
3493	33256	1045.514263943572	0.875
3493	33263	1045.833679565561	0.75
3493	34260	1077	1
3493	34264	1077.3	0.75
3493	34269	1077.606260096456	0.75
3493	34273	1077.810233281666	0.875
3493	35320	1109	1
3493	35324	1109.3	0.75
3493	35328	1109.50105062525	0.875
3493	35332	1109.703695109595	0.875
3493	36355	1141.1	0.875
3493	36358	1141.3	0.875
3493	36362	1141.5047924738	0.875
3493	36367	1141.714369909643	0.875
3493	37396	1173.2	0.75
3493	37400	1173.408911165781	0.875
3493	37404	1173.618077817242	0.875
3493	37409	1173.822603801633	0.875
3493	38433	1205.1	0.875
3493	38437	1205.4	0.75
3493	38443	1205.608530889252	0.875
3493	38447	1205.808832548044	0.875
3493	39453	1237.3	0.625
3493	39456	1237.5	0.875
3493	39460	1237.701084059511	0.875
3493	39468	1238.005967377854	0.75
3493	40486	1269.2	0.75
3493	40490	1269.5	0.75
3493	40494	1269.709771122927	0.875
3493	40504	1270.024105508349	0.75
3493	41508	1301.1	0.875
3493	41511	1301.3	0.875
3493	41515	1301.506916573715	0.875
3493	41520	1301.720785211856	0.875
3493	42547	1333.1	0.875
3493	42551	1333.4	0.75
3493	42556	1333.70852661771	0.75
3493	42561	1333.917821925035	0.875
3493	43607	1365.2	0.75
3493	43612	1365.506326899577	0.75
3493	43616	1365.712622149479	0.875
3493	43620	1365.915974308121	0.875
3493	44608	1397.1	0.875
3493	44613	1397.40096207861	0.75
3493	44617	1397.608137937834	0.875
3493	44621	1397.810996870497	0.875
3493	45635	1429.1	0.875
3493	45639	1429.4	0.75
3493	45644	1429.703156717431	0.75
3493	45655	1430.024733301609	0.75
3493	46682	1461.1	0.875
3493	46685	1461.3	0.875
3493	46695	1461.529320462558	0.875
3493	46699	1461.732280461699	0.875
3493	47726	1493	1
3493	47729	1493.2	0.875
3493	47733	1493.407865399993	0.875
3493	47738	1493.717306546596	0.75
3493	48762	1525.2	0.75
3493	48765	1525.4	0.875
3493	48772	1525.706935081879	0.75
3493	48776	1525.907335252118	0.875
3493	49793	1557.1	0.875
3493	49797	1557.4	0.75
3493	49802	1557.707556982294	0.75
3493	49806	1557.916992826573	0.875
3493	50849	1589.2	0.75
3493	50853	1589.5	0.75
3493	50857	1589.702738422197	0.875
3493	50870	1590.010169348749	0.75
3493	51858	1621.1	0.875
3493	51862	1621.4	0.75
3493	51867	1621.705105715121	0.75
3493	51872	1621.915694847394	0.875
3493	52876	1653.1	0.875
3493	52879	1653.3	0.875
3493	52883	1653.503457776051	0.875
3493	52892	1653.736786514698	0.875
3493	53925	1685.1	0.875
3493	53931	1685.410160042756	0.75
3493	53935	1685.618342669299	0.875
3493	53939	1685.827537786264	0.875
3493	54953	1717.1	0.875
3493	54960	1717.316208722096	0.875
3493	54964	1717.522739532611	0.875
3493	54968	1717.728221449237	0.875
3493	55996	1749.2	0.75
3493	56000	1749.5	0.75
3493	56005	1749.800681435936	0.75
3493	56030	1750.081022296485	0.875
3493	57072	1781.2	0.75
3493	57076	1781.5	0.75
3493	57081	1781.716035339712	0.875
3493	57085	1781.92024139361	0.875
3493	58099	1813.2	0.75
3493	58102	1813.4	0.875
3493	58107	1813.611108639447	0.875
3493	58112	1813.825183497007	0.875
3493	59162	1845.1	0.875
3493	59165	1845.3	0.875
3493	59171	1845.605334118948	0.75
3493	59177	1845.817708318405	0.875
3493	60198	1877.2	0.75
3493	60203	1877.507951455756	0.75
3493	60208	1877.810418975375	0.75
3493	60215	1878.015409784471	0.875
3493	61259	1909.1	0.875
3493	61262	1909.3	0.875
3493	61267	1909.602494419894	0.75
3493	61273	1909.820068056649	0.875
3493	62281	1941.1	0.875
3493	62285	1941.4	0.75
3493	62290	1941.701174343368	0.75
3493	62296	1941.908371583695	0.875
3493	63347	1973.3	0.625
3493	63350	1973.5	0.875
3493	63354	1973.706808899655	0.875
3493	63364	1974.016432606807	0.75
3493	64403	2005.2	0.75
3493	64407	2005.5	0.75
3493	64413	2005.715383676783	0.875
3493	64423	2005.95861989943	0.875
3493	65459	2037.2	0.75
3493	65463	2037.5	0.75
3493	65467	2037.707873159013	0.875
3493	65477	2038.028125277234	0.75
3494	29	21	0
3494	33	21.3	0.3
3494	37	21.502156180334	0.2
3494	42	21.706954300384	0.2
3494	1044	53.2	0.2
3494	1049	53.413329808206	0.2
3494	1053	53.619867581675	0.2
3494	1061	53.840232109469	0.2
3494	2121	85.2	0.2
3494	2125	85.5	0.3
3494	2129	85.705120365894	0.2
3494	2134	85.915912802297	0.2
3494	3148	117.1	0.1
3494	3151	117.3	0.2
3494	3157	117.612058045458	0.3
3494	3162	117.819793964685	0.2
3494	4179	149.2	0.2
3494	4182	149.4	0.2
3494	4187	149.707701562868	0.3
3494	4191	149.910095746893	0.2
3494	5200	181.1	0.1
3494	5203	181.3	0.2
3494	5208	181.510116630566	0.2
3494	5213	181.714432587222	0.2
3494	6267	213.1	0.1
3494	6274	213.410599891011	0.3
3494	6278	213.611910479295	0.2
3494	6283	213.826960447402	0.2
3494	7254	245.2	0.2
3494	7257	245.4	0.2
3494	7261	245.606486143972	0.2
3494	7266	245.82120992934	0.2
3494	8293	277.1	0.1
3494	8298	277.318399230132	0.2
3494	8304	277.543018450861	0.2
3494	8311	277.765726736552	0.2
3494	9316	309.1	0.1
3494	9319	309.3	0.2
3494	9324	309.509439325057	0.2
3494	9328	309.717967235195	0.2
3494	10332	341.2	0.2
3494	10336	341.407554368365	0.2
3494	10340	341.614415857652	0.2
3494	10346	341.918542603246	0.3
3494	11394	373.1	0.1
3494	11398	373.4	0.3
3494	11403	373.705609121541	0.3
3494	11407	373.913333227796	0.2
3494	12450	405.1	0.1
3494	12453	405.3	0.2
3494	12458	405.600329120068	0.3
3494	12463	405.810880463958	0.2
3494	13497	437	0
3494	13501	437.3	0.3
3494	13505	437.501355522021	0.2
3494	13510	437.805444030696	0.3
3494	14526	469.3	0.3
3494	14529	469.5	0.2
3494	14534	469.801805139444	0.3
3494	14543	470.10487818627	0.3
3494	15612	501.2	0.2
3494	15616	501.406664560073	0.2
3494	15622	501.719060251657	0.3
3494	15630	502.022218402493	0.3
3494	16636	533.2	0.2
3494	16640	533.5	0.3
3494	16646	533.709872485402	0.2
3494	16651	533.913880631907	0.2
3494	17659	565.1	0.1
3494	17663	565.4	0.3
3494	17668	565.616801975124	0.2
3494	17672	565.820240610643	0.2
3494	18727	597.1	0.1
3494	18730	597.3	0.2
3494	18734	597.509671701032	0.2
3494	18740	597.718792840169	0.2
3494	19751	629.1	0.1
3494	19755	629.4	0.3
3494	19759	629.609505170315	0.2
3494	19764	629.82419789481	0.2
3494	20771	661.1	0.1
3494	20776	661.40867881356	0.3
3494	20780	661.611324084566	0.2
3494	20784	661.814096145671	0.2
3494	21806	693.3	0.3
3494	21809	693.5	0.2
3494	21813	693.708228593198	0.2
3494	21824	694.036377517135	0.3
3494	22860	725.3	0.3
3494	22863	725.5	0.2
3494	22870	725.718403486181	0.2
3494	22874	725.922530424389	0.2
3494	23892	757.2	0.2
3494	23896	757.5	0.3
3494	23906	757.736260284319	0.2
3494	23924	758.087799027664	0.3
3494	24934	789.2	0.2
3494	24938	789.5	0.3
3494	24946	789.71842166031	0.2
3494	24950	789.926409800473	0.2
3494	25975	821.1	0.1
3494	25978	821.3	0.2
3494	25983	821.605900012142	0.3
3494	25989	821.823004263699	0.2
3494	26981	853.2	0.2
3494	26988	853.510802999263	0.3
3494	26992	853.711981911725	0.2
3494	26996	853.92069246107	0.2
3494	28026	885.2	0.2
3494	28029	885.4	0.2
3494	28035	885.714032825551	0.3
3494	28039	885.923360234071	0.2
3494	29051	917.1	0.1
3494	29055	917.30715100086	0.2
3494	29060	917.615388731085	0.3
3494	29065	917.825972343517	0.2
3494	30088	949	0
3494	30091	949.2	0.2
3494	30097	949.508330286175	0.3
3494	30103	949.723088469745	0.2
3494	31125	981	0
3494	31128	981.2	0.2
3494	31138	981.426339788625	0.2
3494	31145	981.741530711167	0.3
3494	32205	1013.1	0.1
3494	32208	1013.3	0.2
3494	32212	1013.506290715732	0.2
3494	32220	1013.725761601364	0.2
3494	33248	1045.1	0.1
3494	33252	1045.306068955368	0.2
3494	33256	1045.514263943572	0.2
3494	33263	1045.833679565561	0.3
3494	34260	1077	0
3494	34264	1077.3	0.3
3494	34269	1077.606260096456	0.3
3494	34273	1077.810233281666	0.2
3494	35320	1109	0
3494	35324	1109.3	0.3
3494	35328	1109.50105062525	0.2
3494	35332	1109.703695109595	0.2
3494	36355	1141.1	0.1
3494	36358	1141.3	0.2
3494	36362	1141.5047924738	0.2
3494	36367	1141.714369909643	0.2
3494	37396	1173.2	0.2
3494	37400	1173.408911165781	0.2
3494	37404	1173.618077817242	0.2
3494	37409	1173.822603801633	0.2
3494	38433	1205.1	0.1
3494	38437	1205.4	0.3
3494	38443	1205.608530889252	0.2
3494	38447	1205.808832548044	0.2
3494	39453	1237.3	0.3
3494	39456	1237.5	0.2
3494	39460	1237.701084059511	0.2
3494	39468	1238.005967377854	0.3
3494	40486	1269.2	0.2
3494	40490	1269.5	0.3
3494	40494	1269.709771122927	0.2
3494	40504	1270.024105508349	0.3
3494	41508	1301.1	0.1
3494	41511	1301.3	0.2
3494	41515	1301.506916573715	0.2
3494	41520	1301.720785211856	0.2
3494	42547	1333.1	0.1
3494	42551	1333.4	0.3
3494	42556	1333.70852661771	0.3
3494	42561	1333.917821925035	0.2
3494	43607	1365.2	0.2
3494	43612	1365.506326899577	0.3
3494	43616	1365.712622149479	0.2
3494	43620	1365.915974308121	0.2
3494	44608	1397.1	0.1
3494	44613	1397.40096207861	0.3
3494	44617	1397.608137937834	0.2
3494	44621	1397.810996870497	0.2
3494	45635	1429.1	0.1
3494	45639	1429.4	0.3
3494	45644	1429.703156717431	0.3
3494	45655	1430.024733301609	0.3
3494	46682	1461.1	0.1
3494	46685	1461.3	0.2
3494	46695	1461.529320462558	0.2
3494	46699	1461.732280461699	0.2
3494	47726	1493	0
3494	47729	1493.2	0.2
3494	47733	1493.407865399993	0.2
3494	47738	1493.717306546596	0.3
3494	48762	1525.2	0.2
3494	48765	1525.4	0.2
3494	48772	1525.706935081879	0.3
3494	48776	1525.907335252118	0.2
3494	49793	1557.1	0.1
3494	49797	1557.4	0.3
3494	49802	1557.707556982294	0.3
3494	49806	1557.916992826573	0.2
3494	50849	1589.2	0.2
3494	50853	1589.5	0.3
3494	50857	1589.702738422197	0.2
3494	50870	1590.010169348749	0.3
3494	51858	1621.1	0.1
3494	51862	1621.4	0.3
3494	51867	1621.705105715121	0.3
3494	51872	1621.915694847394	0.2
3494	52876	1653.1	0.1
3494	52879	1653.3	0.2
3494	52883	1653.503457776051	0.2
3494	52892	1653.736786514698	0.2
3494	53925	1685.1	0.1
3494	53931	1685.410160042756	0.3
3494	53935	1685.618342669299	0.2
3494	53939	1685.827537786264	0.2
3494	54953	1717.1	0.1
3494	54960	1717.316208722096	0.2
3494	54964	1717.522739532611	0.2
3494	54968	1717.728221449237	0.2
3494	55996	1749.2	0.2
3494	56000	1749.5	0.3
3494	56005	1749.800681435936	0.3
3494	56030	1750.081022296485	0.2
3494	57072	1781.2	0.2
3494	57076	1781.5	0.3
3494	57081	1781.716035339712	0.2
3494	57085	1781.92024139361	0.2
3494	58099	1813.2	0.2
3494	58102	1813.4	0.2
3494	58107	1813.611108639447	0.2
3494	58112	1813.825183497007	0.2
3494	59162	1845.1	0.1
3494	59165	1845.3	0.2
3494	59171	1845.605334118948	0.3
3494	59177	1845.817708318405	0.2
3494	60198	1877.2	0.2
3494	60203	1877.507951455756	0.3
3494	60208	1877.810418975375	0.3
3494	60215	1878.015409784471	0.2
3494	61259	1909.1	0.1
3494	61262	1909.3	0.2
3494	61267	1909.602494419894	0.3
3494	61273	1909.820068056649	0.2
3494	62281	1941.1	0.1
3494	62285	1941.4	0.3
3494	62290	1941.701174343368	0.3
3494	62296	1941.908371583695	0.2
3494	63347	1973.3	0.3
3494	63350	1973.5	0.2
3494	63354	1973.706808899655	0.2
3494	63364	1974.016432606807	0.3
3494	64403	2005.2	0.2
3494	64407	2005.5	0.3
3494	64413	2005.715383676783	0.2
3494	64423	2005.95861989943	0.2
3494	65459	2037.2	0.2
3494	65463	2037.5	0.3
3494	65467	2037.707873159013	0.2
3494	65477	2038.028125277234	0.3
3495	60	22.2	2
3495	64	22.403387556488	1
3495	68	22.609678246178	1
3495	72	22.814071744072	1
3495	1078	54.1	1
3495	1083	54.30973412947	1
3495	1087	54.513158706971	1
3495	1092	54.72385175149	1
3495	2152	86.2	2
3495	2155	86.4	1
3495	2160	86.611596291897	1
3495	2168	86.839658653432	1
3495	3180	118.2	2
3495	3183	118.4	1
3495	3187	118.601056936911	1
3495	3192	118.814223071088	1
3495	4208	150.1	1
3495	4213	150.312684935733	1
3495	4217	150.514471087817	1
3495	4226	150.834193739646	2
3495	5230	182.1	1
3495	5235	182.400596724387	2
3495	5241	182.715544486768	2
3495	5247	182.924377225821	1
3495	6300	214.1	1
3495	6303	214.3	1
3495	6307	214.505678913095	1
3495	6311	214.713696643279	1
3495	7284	246.2	2
3495	7287	246.4	1
3495	7292	246.70332597925	2
3495	7299	246.922366510651	1
3495	8327	278	0
3495	8330	278.2	1
3495	8334	278.401906690567	1
3495	8339	278.708436758029	2
3495	9345	310.1	1
3495	9349	310.4	2
3495	9353	310.605285796814	1
3495	9357	310.810047459807	1
3495	10364	342.2	2
3495	10367	342.4	1
3495	10371	342.603370815548	1
3495	10375	342.813087191956	1
3495	11424	374.1	1
3495	11427	374.3	1
3495	11432	374.508233370186	1
3495	11442	374.744289640645	1
3495	12480	406.1	1
3495	12483	406.3	1
3495	12487	406.506455961519	1
3495	12491	406.710113287295	1
3495	13527	438.1	1
3495	13531	438.4	2
3495	13538	438.625587581715	1
3495	13542	438.829902209285	1
3495	14557	470.2	2
3495	14562	470.501193808598	2
3495	14566	470.70633842548	1
3495	14575	470.945695240958	1
3495	15645	502.2	2
3495	15648	502.4	1
3495	15653	502.704518965901	2
3495	15666	502.950579099018	1
3495	16669	534.2	2
3495	16674	534.501381299844	2
3495	16681	534.811634053993	2
3495	16692	535.057083148231	1
3495	17690	566.2	2
3495	17695	566.503520957331	2
3495	17701	566.812774084565	2
3495	17713	567.128505373347	2
3495	18758	598.2	2
3495	18762	598.5	2
3495	18767	598.804848730552	2
3495	18775	599.011208694122	1
3495	19781	630.1	1
3495	19786	630.402096364914	2
3495	19793	630.719332284785	2
3495	19802	631.03191664086	2
3495	20801	662.1	1
3495	20805	662.4	2
3495	20812	662.62516856359	1
3495	20823	662.957367258535	2
3495	21842	694.4	5
3495	21847	694.707641632284	2
3495	21851	694.913127344699	1
3495	21868	695.219142680064	2
3495	22891	726.1	1
3495	22895	726.4	2
3495	22901	726.615068490644	1
3495	22906	726.922635969693	2
3495	23939	758.2	2
3495	23943	758.5	2
3495	23948	758.710958774308	1
3495	23957	759.021072612273	2
3495	24968	790.2	2
3495	24971	790.4	1
3495	24976	790.702291633617	2
3495	24982	790.913450269723	1
3495	26007	822.2	2
3495	26010	822.4	1
3495	26017	822.711730999098	2
3495	26023	822.926113382678	1
3495	27013	854.1	1
3495	27017	854.4	2
3495	27021	854.60167288131	1
3495	27026	854.816308998627	1
3495	28056	886.1	1
3495	28060	886.4	2