version 2
run Stability-145-20130528-01:00:22-21385
attr configname Stability
attr datetime 20130528-01:00:22
attr experiment Stability
attr inifile omnetpp.ini
attr iterationvars $0=1e-8
attr iterationvars2 "$0=1e-8, $repetition=5"
attr measurement $0=1e-8
attr network Network
attr processid 21385
attr repetition 5
attr replication #5
attr resultdir results
attr runnumber 145
attr seedset 145

vector 14161  Network.churner  inGoingSizeSig:vector  ETV
vector 14074  Network.dyn_peer[3]  lookupHopsSig:vector  ETV
vector 14075  Network.dyn_peer[3]  lookupStabilitySig:vector  ETV
vector 14076  Network.dyn_peer[3]  lookupTimeSig:vector  ETV
vector 14086  Network.dyn_peer[7]  lookupHopsSig:vector  ETV
vector 14087  Network.dyn_peer[7]  lookupStabilitySig:vector  ETV
vector 14088  Network.dyn_peer[7]  lookupTimeSig:vector  ETV
vector 14119  Network.dyn_peer[18]  lookupHopsSig:vector  ETV
vector 14120  Network.dyn_peer[18]  lookupStabilitySig:vector  ETV
vector 14121  Network.dyn_peer[18]  lookupTimeSig:vector  ETV
vector 14125  Network.dyn_peer[20]  lookupHopsSig:vector  ETV
vector 14126  Network.dyn_peer[20]  lookupStabilitySig:vector  ETV
vector 14127  Network.dyn_peer[20]  lookupTimeSig:vector  ETV
vector 14134  Network.dyn_peer[23]  lookupHopsSig:vector  ETV
vector 14135  Network.dyn_peer[23]  lookupStabilitySig:vector  ETV
vector 14136  Network.dyn_peer[23]  lookupTimeSig:vector  ETV
vector 14143  Network.dyn_peer[26]  lookupHopsSig:vector  ETV
vector 14144  Network.dyn_peer[26]  lookupStabilitySig:vector  ETV
vector 14145  Network.dyn_peer[26]  lookupTimeSig:vector  ETV
vector 14065  Network.dyn_peer[0]  lookupHopsSig:vector  ETV
vector 14066  Network.dyn_peer[0]  lookupStabilitySig:vector  ETV
vector 14067  Network.dyn_peer[0]  lookupTimeSig:vector  ETV
vector 14077  Network.dyn_peer[4]  lookupHopsSig:vector  ETV
vector 14078  Network.dyn_peer[4]  lookupStabilitySig:vector  ETV
vector 14079  Network.dyn_peer[4]  lookupTimeSig:vector  ETV
vector 14089  Network.dyn_peer[8]  lookupHopsSig:vector  ETV
vector 14090  Network.dyn_peer[8]  lookupStabilitySig:vector  ETV
vector 14091  Network.dyn_peer[8]  lookupTimeSig:vector  ETV
vector 14095  Network.dyn_peer[10]  lookupHopsSig:vector  ETV
vector 14096  Network.dyn_peer[10]  lookupStabilitySig:vector  ETV
vector 14097  Network.dyn_peer[10]  lookupTimeSig:vector  ETV
vector 14098  Network.dyn_peer[11]  lookupHopsSig:vector  ETV
vector 14099  Network.dyn_peer[11]  lookupStabilitySig:vector  ETV
vector 14100  Network.dyn_peer[11]  lookupTimeSig:vector  ETV
vector 14110  Network.dyn_peer[15]  lookupHopsSig:vector  ETV
vector 14111  Network.dyn_peer[15]  lookupStabilitySig:vector  ETV
vector 14112  Network.dyn_peer[15]  lookupTimeSig:vector  ETV
vector 14116  Network.dyn_peer[17]  lookupHopsSig:vector  ETV
vector 14117  Network.dyn_peer[17]  lookupStabilitySig:vector  ETV
vector 14118  Network.dyn_peer[17]  lookupTimeSig:vector  ETV
vector 14152  Network.dyn_peer[29]  lookupHopsSig:vector  ETV
vector 14153  Network.dyn_peer[29]  lookupStabilitySig:vector  ETV
vector 14154  Network.dyn_peer[29]  lookupTimeSig:vector  ETV
vector 14155  Network.dyn_peer[30]  lookupHopsSig:vector  ETV
vector 14156  Network.dyn_peer[30]  lookupStabilitySig:vector  ETV
vector 14157  Network.dyn_peer[30]  lookupTimeSig:vector  ETV
vector 14068  Network.dyn_peer[1]  lookupHopsSig:vector  ETV
vector 14069  Network.dyn_peer[1]  lookupStabilitySig:vector  ETV
vector 14070  Network.dyn_peer[1]  lookupTimeSig:vector  ETV
vector 14071  Network.dyn_peer[2]  lookupHopsSig:vector  ETV
vector 14072  Network.dyn_peer[2]  lookupStabilitySig:vector  ETV
vector 14073  Network.dyn_peer[2]  lookupTimeSig:vector  ETV
vector 14080  Network.dyn_peer[5]  lookupHopsSig:vector  ETV
vector 14081  Network.dyn_peer[5]  lookupStabilitySig:vector  ETV
vector 14082  Network.dyn_peer[5]  lookupTimeSig:vector  ETV
vector 14083  Network.dyn_peer[6]  lookupHopsSig:vector  ETV
vector 14084  Network.dyn_peer[6]  lookupStabilitySig:vector  ETV
vector 14085  Network.dyn_peer[6]  lookupTimeSig:vector  ETV
vector 14101  Network.dyn_peer[12]  lookupHopsSig:vector  ETV
vector 14102  Network.dyn_peer[12]  lookupStabilitySig:vector  ETV
vector 14103  Network.dyn_peer[12]  lookupTimeSig:vector  ETV
vector 14107  Network.dyn_peer[14]  lookupHopsSig:vector  ETV
vector 14108  Network.dyn_peer[14]  lookupStabilitySig:vector  ETV
vector 14109  Network.dyn_peer[14]  lookupTimeSig:vector  ETV
vector 14113  Network.dyn_peer[16]  lookupHopsSig:vector  ETV
vector 14114  Network.dyn_peer[16]  lookupStabilitySig:vector  ETV
vector 14115  Network.dyn_peer[16]  lookupTimeSig:vector  ETV
vector 14122  Network.dyn_peer[19]  lookupHopsSig:vector  ETV
vector 14123  Network.dyn_peer[19]  lookupStabilitySig:vector  ETV
vector 14124  Network.dyn_peer[19]  lookupTimeSig:vector  ETV
vector 14128  Network.dyn_peer[21]  lookupHopsSig:vector  ETV
vector 14129  Network.dyn_peer[21]  lookupStabilitySig:vector  ETV
vector 14130  Network.dyn_peer[21]  lookupTimeSig:vector  ETV
vector 14131  Network.dyn_peer[22]  lookupHopsSig:vector  ETV
vector 14132  Network.dyn_peer[22]  lookupStabilitySig:vector  ETV
vector 14133  Network.dyn_peer[22]  lookupTimeSig:vector  ETV
vector 14146  Network.dyn_peer[27]  lookupHopsSig:vector  ETV
vector 14147  Network.dyn_peer[27]  lookupStabilitySig:vector  ETV
vector 14148  Network.dyn_peer[27]  lookupTimeSig:vector  ETV
vector 14158  Network.dyn_peer[31]  lookupHopsSig:vector  ETV
vector 14159  Network.dyn_peer[31]  lookupStabilitySig:vector  ETV
vector 14160  Network.dyn_peer[31]  lookupTimeSig:vector  ETV
vector 14092  Network.dyn_peer[9]  lookupHopsSig:vector  ETV
vector 14093  Network.dyn_peer[9]  lookupStabilitySig:vector  ETV
vector 14094  Network.dyn_peer[9]  lookupTimeSig:vector  ETV
vector 14104  Network.dyn_peer[13]  lookupHopsSig:vector  ETV
vector 14105  Network.dyn_peer[13]  lookupStabilitySig:vector  ETV
vector 14106  Network.dyn_peer[13]  lookupTimeSig:vector  ETV
vector 14137  Network.dyn_peer[24]  lookupHopsSig:vector  ETV
vector 14138  Network.dyn_peer[24]  lookupStabilitySig:vector  ETV
vector 14139  Network.dyn_peer[24]  lookupTimeSig:vector  ETV
vector 14140  Network.dyn_peer[25]  lookupHopsSig:vector  ETV
vector 14141  Network.dyn_peer[25]  lookupStabilitySig:vector  ETV
vector 14142  Network.dyn_peer[25]  lookupTimeSig:vector  ETV
vector 14149  Network.dyn_peer[28]  lookupHopsSig:vector  ETV
vector 14150  Network.dyn_peer[28]  lookupStabilitySig:vector  ETV
vector 14151  Network.dyn_peer[28]  lookupTimeSig:vector  ETV
14065	149	20.10000000001	1
14065	425	20.50000000001	3
14065	1035	21.30010000002	4
14065	1053	21.302967452011	8
14065	1527	21.709053120153	3
14065	2493	22.409153120163	8
14065	2841	22.709153120163	2
14065	3236	23.011320312986	2
14065	3292	23.031830196652	2
14065	3470	23.220113010952	1
14065	3634	23.327597196496	1
14065	3954	23.627597196496	2
14065	4557	24.140127715345	4
14065	4781	24.342238855345	1
14065	5049	24.628109585938	4
14065	5229	24.740846553539	2
14065	5310	24.833557447769	2
14065	5331	24.836572262339	2
14065	6163	25.638557807432	9
14065	6597	25.949987827012	1
14065	6599	25.950249282316	1
14065	6656	26.038557807432	3
14065	7134	26.442331213149	4
14065	7328	26.642331213149	1
14065	7676	26.942431213159	3
14065	8474	27.542431213159	5
14065	8731	27.749951659035	3
14065	9108	28.051367517685	2
14065	9658	28.451467517695	5
14065	9906	28.656111809095	1
14065	10410	29.061926794511	3
14065	10780	29.363991040203	2
14065	10861	29.38519983542	2
14065	10880	29.401553718221	2
14065	11048	29.569348432472	1
14065	12293	30.576722032141	10
14065	12593	30.776722032141	1
14065	12901	30.976822032151	2
14065	13716	31.576822032151	6
14065	14140	31.884443499399	2
14065	14640	32.286847543751	4
14065	14972	32.586847543751	2
14065	15312	32.887019774838	2
14065	15808	33.313803695458	6
14065	15843	33.390626367607	4
14065	15866	33.395686915834	4
14065	16115	33.601399453953	1
14065	16376	33.791293439179	4
14065	16682	33.997747794845	2
14065	18356	35.397747794845	16
14065	18660	35.698509880224	2
14065	18737	35.727161856998	8
14065	19063	36.034072714882	2
14065	19699	36.548386547742	4
14065	20500	37.242367520383	2
14065	20814	37.542367520383	2
14065	21855	38.448153214798	8
14065	21858	38.448389501546	3
14065	21886	38.449309074237	0
14065	22783	39.14692522314	1
14065	23084	39.442767804679	4
14065	23110	39.449309074237	11
14065	23330	39.649960876151	2
14065	23945	40.149960876151	4
14065	24385	40.459690844856	2
14065	25158	41.068731291389	7
14065	25389	41.268731291389	1
14065	25976	41.775064626039	5
14065	26192	41.990425966184	1
14065	27787	43.290525966194	13
14065	28162	43.690525966194	3
14065	28634	44.091791305419	3
14065	29332	44.700566226375	6
14065	30257	45.487494791008	2
14065	30280	45.500566226375	7
14065	30712	45.801385377006	3
14065	32075	46.901385377006	11
14065	32460	47.205122646168	2
14065	32526	47.221699711735	1
14065	32901	47.523291451568	3
14065	32926	47.527501694342	2
14065	32931	47.527985597129	2
14065	33420	47.938024428144	4
14065	33840	48.346072563584	3
14065	34086	48.561799226078	1
14065	34355	48.767419765627	3
14065	34974	49.267419765627	4
14065	35392	49.673774912113	5
14065	35648	49.944235618478	5
14065	36043	50.283488156346	6
14065	36127	50.352995145485	2
14065	36511	50.644578052389	7
14065	36936	51.050289036026	4
14065	38488	52.511075395736	10
14065	39227	53.211075395736	6
14065	39578	53.513385829405	3
14065	39840	53.71922240869	1
14065	40464	54.197970093294	6
14065	40909	54.578841154668	7
14065	41397	54.888031319554	3
14065	41632	55.088031319554	1
14065	42130	55.490460444718	3
14065	42317	55.627314860943	4
14065	42552	55.837314175191	1
14065	43010	56.227408116931	2
14065	43086	56.294524459151	2
14065	43090	56.299636391311	8
14065	43873	56.899831451777	6
14065	45253	57.999831451777	10
14065	45849	58.502797109376	4
14065	46272	58.912435912481	3
14065	46446	59.052373027163	3
14065	46668	59.219327584365	2
14065	48193	60.424966983741	14
14065	48625	60.824966983741	3
14065	48971	61.128883466263	3
14065	49528	61.510759656923	7
14065	49707	61.633045591524	4
14065	49750	61.674651695631	4
14065	49871	61.77523126823	1
14065	50462	62.27523126823	4
14065	50942	62.680437962181	3
14065	51952	63.480537962191	9
14065	52421	63.780537962191	2
14065	52709	63.987616608787	1
14065	53121	64.288615818004	2
14065	53266	64.397484777657	1
14065	53878	64.907415263439	4
14065	54094	65.1229716343	2
14065	54472	65.534355431243	3
14065	54600	65.645990779967	2
14065	54753	65.747070563553	1
14065	55086	66.047070563553	2
14065	55693	66.541892082697	1
14065	56326	67.046040088565	4
14065	56559	67.25601208816	1
14065	57024	67.648883763231	16
14065	57227	67.863944557897	5
14065	59131	69.464044557907	18
14065	59740	69.971430723917	4
14065	59859	70.071530723927	1
14065	60990	71.071530723927	10
14065	61384	71.37742219349	3
14065	62710	72.516785308058	7
14065	63095	72.816785308058	2
14065	63653	73.242545568452	2
14065	63734	73.324853402693	4
14065	64104	73.625517539661	2
14065	64399	73.842979017558	5
14065	64423	73.852293467708	5
14065	64445	73.866984525245	5
14065	64774	74.173878150898	3
14065	65237	74.573878150898	3
14065	65460	74.773978150908	2
14065	66353	75.573978150908	7
14065	67268	76.280189751418	6
14065	67559	76.485224304438	3
14065	67701	76.585411927178	2
14065	68829	77.395229633275	8
14065	69520	77.895229633275	4
14065	70222	78.397009527093	5
14065	71290	79.197009527093	7
14065	71858	79.605247572479	4
14065	72229	79.899209138278	6
14065	72343	80.008648160356	3
14065	72633	80.24804959745	0
14065	72710	80.307030626907	3
14065	72912	80.508798360276	1
14065	72928	80.510385100104	0
14065	73130	80.710385100104	1
14065	73840	81.480463087436	5
14065	74157	81.780563087446	4
14065	74963	82.480563087446	6
14065	75369	82.787234182012	2
14065	75463	82.857740148687	2
14065	76376	83.564765267136	8
14065	76923	84.064765267136	4
14065	77344	84.374515580623	2
14065	77922	84.777605356527	4
14065	78557	85.277605356527	4
14065	79223	85.777705356537	5
14065	79579	86.077705356537	2
14065	80784	87.084004575286	6
14065	81797	87.884004575286	8
14065	82187	88.19263649339	2
14065	84008	89.704837085125	3
14065	84520	90.112671585804	4
14065	84772	90.369457365548	2
14065	84928	90.500786716664	25
14065	85248	90.769894310232	4
14065	85787	91.169994310242	5
14065	86784	91.869994310242	6
14065	86912	91.959716085525	3
14065	87169	92.168964864026	1
14065	87709	92.575119333522	4
14065	87930	92.776708349784	1
14065	88168	92.97972515808	1
14065	88172	92.980204369369	1
14065	89283	93.980304369379	10
14065	89767	94.380304369379	4
14065	90120	94.690287534936	2
14065	90472	94.996221760734	4
14065	91156	95.596221760734	6
14065	91412	95.805168186332	1
14065	91966	96.311535471425	4
14065	92467	96.811906624302	4
14065	92805	97.109512755864	8
14065	93498	97.715819264518	6
14065	94943	98.906725952361	6
14065	94955	98.915819264518	12
14065	95070	99.011159139302	3
14065	95200	99.11706509475	1
14065	95838	99.61706509475	5
14065	96520	100.21716509476	6
14065	96880	100.51716509476	2
14065	96977	100.626518172905	2
14065	97664	101.233254125017	5
14065	97897	101.460368758566	6
14065	98759	102.224250907047	17
14065	98777	102.235087018605	10
14065	98805	102.244695675788	0
14065	99394	102.744695675788	5
14065	99839	103.144795675798	4
14065	101271	104.344795675798	12
14065	101493	104.554511940566	1
14065	102236	105.157226595786	6
14065	102919	105.757226595786	5
14065	103905	106.660664081448	10
14065	104799	107.39955654871	8
14065	105868	108.29965654872	10
14065	106039	108.49965654872	1
14065	106253	108.709516286085	1
14065	107029	109.416855459594	7
14065	107489	109.816855459594	3
14065	108188	110.317731469025	5
14065	108961	110.881854622352	3
14065	109037	110.92700186251	7
14065	109215	111.090697856181	1
14065	109489	111.343297474029	4
14065	109998	111.743397474039	4
14065	111032	112.643397474039	11
14065	111212	112.843884852273	1
14065	111815	113.447116802256	5
14065	112263	113.819841339258	4
14065	112299	113.859568444238	3
14065	112482	113.96482698142	1
14065	113094	114.36482698142	3
14065	113356	114.567713949714	2
14065	113604	114.772188629425	1
14065	114511	115.573332151946	8
14065	114931	115.973332151946	3
14065	115532	116.482584236024	4
14065	116070	117.015128674719	1
14065	116304	117.188852594461	7
14065	117056	117.894573143547	7
14065	117545	118.294573143547	4
14065	117861	118.605642468755	2
14065	118311	119.015613080843	4
14065	118722	119.316884620469	4
14065	119210	119.716884620469	3
14065	119492	120.019370522682	2
14065	120652	120.984078609591	4
14065	121111	121.384078609591	3
14065	121828	121.992768924698	6
14065	123512	123.504190154666	16
14065	123832	123.711886929195	1
14065	124148	123.905189416188	1
14065	124462	124.111547584692	1
14065	124740	124.316901231639	2
14065	126405	125.893209733076	15
14065	128210	127.393209733076	14
14065	128788	127.800749721163	3
14065	129237	128.120511880107	12
14065	129610	128.426540380688	3
14065	130624	129.326540380688	9
14065	131203	129.929783835755	5
14065	131487	130.23362550741	7
14065	131744	130.441137414271	1
14065	131890	130.557344559895	5
14065	132080	130.751867168597	2
14065	132438	131.052702687076	3
14065	132849	131.452702687076	3
14065	133565	132.058772320879	2
14065	134244	132.565852126694	4
14065	134372	132.652930026257	11
14065	134633	132.860873965506	7
14065	134790	132.966187468753	3
14065	135081	133.161497516946	5
14065	135092	133.168375798935	1
14065	135332	133.373533332582	2
14065	135827	133.873533332582	4
14065	136007	134.077288919777	1
14065	136096	134.180148166417	1
14065	136189	134.28521737211	2
14066	149	20.10000000001	0.875
14066	425	20.50000000001	0.625
14066	1035	21.30010000002	0.5
14066	1053	21.302967452011	0
14066	1527	21.709053120153	0.625
14066	2493	22.409153120163	0
14066	2841	22.709153120163	0.75
14066	3236	23.011320312986	0.75
14066	3292	23.031830196652	0.75
14066	3470	23.220113010952	0.875
14066	3634	23.327597196496	0.875
14066	3954	23.627597196496	0.75
14066	4557	24.140127715345	0.5
14066	4781	24.342238855345	0.875
14066	5049	24.628109585938	0.5
14066	5229	24.740846553539	0.75
14066	5310	24.833557447769	0.75
14066	5331	24.836572262339	0.75
14066	6163	25.638557807432	-0.125
14066	6597	25.949987827012	0.875
14066	6599	25.950249282316	0.875
14066	6656	26.038557807432	0.625
14066	7134	26.442331213149	0.5
14066	7328	26.642331213149	0.875
14066	7676	26.942431213159	0.625
14066	8474	27.542431213159	0.375
14066	8731	27.749951659035	0.625
14066	9108	28.051367517685	0.75
14066	9658	28.451467517695	0.375
14066	9906	28.656111809095	0.875
14066	10410	29.061926794511	0.625
14066	10780	29.363991040203	0.75
14066	10861	29.38519983542	0.75
14066	10880	29.401553718221	0.75
14066	11048	29.569348432472	0.875
14066	12293	30.576722032141	-0.25
14066	12593	30.776722032141	0.875
14066	12901	30.976822032151	0.75
14066	13716	31.576822032151	0.25
14066	14140	31.884443499399	0.75
14066	14640	32.286847543751	0.5
14066	14972	32.586847543751	0.75
14066	15312	32.887019774838	0.75
14066	15808	33.313803695458	0.25
14066	15843	33.390626367607	0.5
14066	15866	33.395686915834	0.5
14066	16115	33.601399453953	0.875
14066	16376	33.791293439179	0.5
14066	16682	33.997747794845	0.75
14066	18356	35.397747794845	-1
14066	18660	35.698509880224	0.75
14066	18737	35.727161856998	0
14066	19063	36.034072714882	0.75
14066	19699	36.548386547742	0.5
14066	20500	37.242367520383	0.75
14066	20814	37.542367520383	0.75
14066	21855	38.448153214798	0
14066	21858	38.448389501546	0.625
14066	21886	38.449309074237	1
14066	22783	39.14692522314	0.875
14066	23084	39.442767804679	0.5
14066	23110	39.449309074237	-0.375
14066	23330	39.649960876151	0.75
14066	23945	40.149960876151	0.5
14066	24385	40.459690844856	0.75
14066	25158	41.068731291389	0.125
14066	25389	41.268731291389	0.875
14066	25976	41.775064626039	0.375
14066	26192	41.990425966184	0.875
14066	27787	43.290525966194	-0.625
14066	28162	43.690525966194	0.625
14066	28634	44.091791305419	0.625
14066	29332	44.700566226375	0.25
14066	30257	45.487494791008	0.75
14066	30280	45.500566226375	0.125
14066	30712	45.801385377006	0.625
14066	32075	46.901385377006	-0.375
14066	32460	47.205122646168	0.75
14066	32526	47.221699711735	0.875
14066	32901	47.523291451568	0.625
14066	32926	47.527501694342	0.75
14066	32931	47.527985597129	0.75
14066	33420	47.938024428144	0.5
14066	33840	48.346072563584	0.625
14066	34086	48.561799226078	0.875
14066	34355	48.767419765627	0.625
14066	34974	49.267419765627	0.5
14066	35392	49.673774912113	0.375
14066	35648	49.944235618478	0.375
14066	36043	50.283488156346	0.25
14066	36127	50.352995145485	0.75
14066	36511	50.644578052389	0.125
14066	36936	51.050289036026	0.5
14066	38488	52.511075395736	-0.25
14066	39227	53.211075395736	0.25
14066	39578	53.513385829405	0.625
14066	39840	53.71922240869	0.875
14066	40464	54.197970093294	0.25
14066	40909	54.578841154668	0.125
14066	41397	54.888031319554	0.625
14066	41632	55.088031319554	0.875
14066	42130	55.490460444718	0.625
14066	42317	55.627314860943	0.5
14066	42552	55.837314175191	0.875
14066	43010	56.227408116931	0.75
14066	43086	56.294524459151	0.75
14066	43090	56.299636391311	0
14066	43873	56.899831451777	0.25
14066	45253	57.999831451777	-0.25
14066	45849	58.502797109376	0.5
14066	46272	58.912435912481	0.625
14066	46446	59.052373027163	0.625
14066	46668	59.219327584365	0.75
14066	48193	60.424966983741	-0.75
14066	48625	60.824966983741	0.625
14066	48971	61.128883466263	0.625
14066	49528	61.510759656923	0.125
14066	49707	61.633045591524	0.5
14066	49750	61.674651695631	0.5
14066	49871	61.77523126823	0.875
14066	50462	62.27523126823	0.5
14066	50942	62.680437962181	0.625
14066	51952	63.480537962191	-0.125
14066	52421	63.780537962191	0.75
14066	52709	63.987616608787	0.875
14066	53121	64.288615818004	0.75
14066	53266	64.397484777657	0.875
14066	53878	64.907415263439	0.5
14066	54094	65.1229716343	0.75
14066	54472	65.534355431243	0.625
14066	54600	65.645990779967	0.75
14066	54753	65.747070563553	0.875
14066	55086	66.047070563553	0.75
14066	55693	66.541892082697	0.875
14066	56326	67.046040088565	0.5
14066	56559	67.25601208816	0.875
14066	57024	67.648883763231	-1
14066	57227	67.863944557897	0.375
14066	59131	69.464044557907	-1.25
14066	59740	69.971430723917	0.5
14066	59859	70.071530723927	0.875
14066	60990	71.071530723927	-0.25
14066	61384	71.37742219349	0.625
14066	62710	72.516785308058	0.125
14066	63095	72.816785308058	0.75
14066	63653	73.242545568452	0.75
14066	63734	73.324853402693	0.5
14066	64104	73.625517539661	0.75
14066	64399	73.842979017558	0.375
14066	64423	73.852293467708	0.375
14066	64445	73.866984525245	0.375
14066	64774	74.173878150898	0.625
14066	65237	74.573878150898	0.625
14066	65460	74.773978150908	0.75
14066	66353	75.573978150908	0.125
14066	67268	76.280189751418	0.25
14066	67559	76.485224304438	0.625
14066	67701	76.585411927178	0.75
14066	68829	77.395229633275	0
14066	69520	77.895229633275	0.5
14066	70222	78.397009527093	0.375
14066	71290	79.197009527093	0.125
14066	71858	79.605247572479	0.5
14066	72229	79.899209138278	0.25
14066	72343	80.008648160356	0.625
14066	72633	80.24804959745	1
14066	72710	80.307030626907	0.625
14066	72912	80.508798360276	0.875
14066	72928	80.510385100104	1
14066	73130	80.710385100104	0.875
14066	73840	81.480463087436	0.375
14066	74157	81.780563087446	0.5
14066	74963	82.480563087446	0.25
14066	75369	82.787234182012	0.75
14066	75463	82.857740148687	0.75
14066	76376	83.564765267136	0
14066	76923	84.064765267136	0.5
14066	77344	84.374515580623	0.75
14066	77922	84.777605356527	0.5
14066	78557	85.277605356527	0.5
14066	79223	85.777705356537	0.375
14066	79579	86.077705356537	0.75
14066	80784	87.084004575286	0.25
14066	81797	87.884004575286	0
14066	82187	88.19263649339	0.75
14066	84008	89.704837085125	0.625
14066	84520	90.112671585804	0.5
14066	84772	90.369457365548	0.75
14066	84928	90.500786716664	-2.125
14066	85248	90.769894310232	0.5
14066	85787	91.169994310242	0.375
14066	86784	91.869994310242	0.25
14066	86912	91.959716085525	0.625
14066	87169	92.168964864026	0.875
14066	87709	92.575119333522	0.5
14066	87930	92.776708349784	0.875
14066	88168	92.97972515808	0.875
14066	88172	92.980204369369	0.875
14066	89283	93.980304369379	-0.25
14066	89767	94.380304369379	0.5
14066	90120	94.690287534936	0.75
14066	90472	94.996221760734	0.5
14066	91156	95.596221760734	0.25
14066	91412	95.805168186332	0.875
14066	91966	96.311535471425	0.5
14066	92467	96.811906624302	0.5
14066	92805	97.109512755864	0
14066	93498	97.715819264518	0.25
14066	94943	98.906725952361	0.25
14066	94955	98.915819264518	-0.5
14066	95070	99.011159139302	0.625
14066	95200	99.11706509475	0.875
14066	95838	99.61706509475	0.375
14066	96520	100.21716509476	0.25
14066	96880	100.51716509476	0.75
14066	96977	100.626518172905	0.75
14066	97664	101.233254125017	0.375
14066	97897	101.460368758566	0.25
14066	98759	102.224250907047	-1.125
14066	98777	102.235087018605	-0.25
14066	98805	102.244695675788	1
14066	99394	102.744695675788	0.375
14066	99839	103.144795675798	0.5
14066	101271	104.344795675798	-0.5
14066	101493	104.554511940566	0.875
14066	102236	105.157226595786	0.25
14066	102919	105.757226595786	0.375
14066	103905	106.660664081448	-0.25
14066	104799	107.39955654871	0
14066	105868	108.29965654872	-0.25
14066	106039	108.49965654872	0.875
14066	106253	108.709516286085	0.875
14066	107029	109.416855459594	0.125
14066	107489	109.816855459594	0.625
14066	108188	110.317731469025	0.375
14066	108961	110.881854622352	0.625
14066	109037	110.92700186251	0.125
14066	109215	111.090697856181	0.875
14066	109489	111.343297474029	0.5
14066	109998	111.743397474039	0.5
14066	111032	112.643397474039	-0.375
14066	111212	112.843884852273	0.875
14066	111815	113.447116802256	0.375
14066	112263	113.819841339258	0.5
14066	112299	113.859568444238	0.625
14066	112482	113.96482698142	0.875
14066	113094	114.36482698142	0.625
14066	113356	114.567713949714	0.75
14066	113604	114.772188629425	0.875
14066	114511	115.573332151946	0
14066	114931	115.973332151946	0.625
14066	115532	116.482584236024	0.5
14066	116070	117.015128674719	0.875
14066	116304	117.188852594461	0.125
14066	117056	117.894573143547	0.125
14066	117545	118.294573143547	0.5
14066	117861	118.605642468755	0.75
14066	118311	119.015613080843	0.5
14066	118722	119.316884620469	0.5
14066	119210	119.716884620469	0.625
14066	119492	120.019370522682	0.75
14066	120652	120.984078609591	0.5
14066	121111	121.384078609591	0.66666665673256
14066	121828	121.992768924698	0.25
14066	123512	123.504190154666	-1
14066	123832	123.711886929195	0.875
14066	124148	123.905189416188	0.875
14066	124462	124.111547584692	0.875
14066	124740	124.316901231639	0.75
14066	126405	125.893209733076	-0.875
14066	128210	127.393209733076	-0.75
14066	128788	127.800749721163	0.625
14066	129237	128.120511880107	-0.5
14066	129610	128.426540380688	0.625
14066	130624	129.326540380688	-0.125
14066	131203	129.929783835755	0.375
14066	131487	130.23362550741	0.125
14066	131744	130.441137414271	0.875
14066	131890	130.557344559895	0.375
14066	132080	130.751867168597	0.75
14066	132438	131.052702687076	0.625
14066	132849	131.452702687076	0.625
14066	133565	132.058772320879	0.75
14066	134244	132.565852126694	0.5
14066	134372	132.652930026257	-0.375
14066	134633	132.860873965506	0.125
14066	134790	132.966187468753	0.625
14066	135081	133.161497516946	0.375
14066	135092	133.168375798935	0.875
14066	135332	133.373533332582	0.75
14066	135827	133.873533332582	0.5
14066	136007	134.077288919777	0.875
14066	136096	134.180148166417	0.875
14066	136189	134.28521737211	0.75
14067	149	20.10000000001	0.1
14067	425	20.50000000001	0.4
14067	1035	21.30010000002	0.5
14067	1053	21.302967452011	0.8
14067	1527	21.709053120153	0.4
14067	2493	22.409153120163	0.7
14067	2841	22.709153120163	0.3
14067	3236	23.011320312986	0.3
14067	3292	23.031830196652	0.3
14067	3470	23.220113010952	0.2
14067	3634	23.327597196496	0.1
14067	3954	23.627597196496	0.3
14067	4557	24.140127715345	0.5
14067	4781	24.342238855345	0.2
14067	5049	24.628109585938	0.5
14067	5229	24.740846553539	0.3
14067	5310	24.833557447769	0.2
14067	5331	24.836572262339	0.2
14067	6163	25.638557807432	0.8
14067	6597	25.949987827012	0.2
14067	6599	25.950249282316	0.2
14067	6656	26.038557807432	0.4
14067	7134	26.442331213149	0.4
14067	7328	26.642331213149	0.2
14067	7676	26.942431213159	0.3
14067	8474	27.542431213159	0.6
14067	8731	27.749951659035	0.2
14067	9108	28.051367517685	0.3
14067	9658	28.451467517695	0.4
14067	9906	28.656111809095	0.2
14067	10410	29.061926794511	0.4
14067	10780	29.363991040203	0.3
14067	10861	29.38519983542	0.3
14067	10880	29.401553718221	0.3
14067	11048	29.569348432472	0.2
14067	12293	30.576722032141	1
14067	12593	30.776722032141	0.2
14067	12901	30.976822032151	0.2
14067	13716	31.576822032151	0.6
14067	14140	31.884443499399	0.3
14067	14640	32.286847543751	0.4
14067	14972	32.586847543751	0.3
14067	15312	32.887019774838	0.3
14067	15808	33.313803695458	0.7
14067	15843	33.390626367607	0.5
14067	15866	33.395686915834	0.5
14067	16115	33.601399453953	0.2
14067	16376	33.791293439179	0.4
14067	16682	33.997747794845	0.2
14067	18356	35.397747794845	1.4
14067	18660	35.698509880224	0.3
14067	18737	35.727161856998	0.9
14067	19063	36.034072714882	0.3
14067	19699	36.548386547742	0.5
14067	20500	37.242367520383	0.2
14067	20814	37.542367520383	0.3
14067	21855	38.448153214798	0.9
14067	21858	38.448389501546	0.4
14067	21886	38.449309074237	0
14067	22783	39.14692522314	0.2
14067	23084	39.442767804679	0.4
14067	23110	39.449309074237	1
14067	23330	39.649960876151	0.2
14067	23945	40.149960876151	0.5
14067	24385	40.459690844856	0.3
14067	25158	41.068731291389	0.6
14067	25389	41.268731291389	0.2
14067	25976	41.775064626039	0.5
14067	26192	41.990425966184	0.2
14067	27787	43.290525966194	1.3
14067	28162	43.690525966194	0.4
14067	28634	44.091791305419	0.4
14067	29332	44.700566226375	0.6
14067	30257	45.487494791008	0.3
14067	30280	45.500566226375	0.8
14067	30712	45.801385377006	0.3
14067	32075	46.901385377006	1.1
14067	32460	47.205122646168	0.3
14067	32526	47.221699711735	0.2
14067	32901	47.523291451568	0.3
14067	32926	47.527501694342	0.3
14067	32931	47.527985597129	0.3
14067	33420	47.938024428144	0.4
14067	33840	48.346072563584	0.4
14067	34086	48.561799226078	0.2
14067	34355	48.767419765627	0.2
14067	34974	49.267419765627	0.5
14067	35392	49.673774912113	0.4
14067	35648	49.944235618478	0.6
14067	36043	50.283488156346	0.6
14067	36127	50.352995145485	0.3
14067	36511	50.644578052389	0.7
14067	36936	51.050289036026	0.4
14067	38488	52.511075395736	1
14067	39227	53.211075395736	0.7
14067	39578	53.513385829405	0.3
14067	39840	53.71922240869	0.2
14067	40464	54.197970093294	0.7
14067	40909	54.578841154668	0.8
14067	41397	54.888031319554	0.3
14067	41632	55.088031319554	0.2
14067	42130	55.490460444718	0.4
14067	42317	55.627314860943	0.5
14067	42552	55.837314175191	0.2
14067	43010	56.227408116931	0.3
14067	43086	56.294524459151	0.3
14067	43090	56.299636391311	0.8
14067	43873	56.899831451777	0.6
14067	45253	57.999831451777	1.1
14067	45849	58.502797109376	0.5
14067	46272	58.912435912481	0.4
14067	46446	59.052373027163	0.4
14067	46668	59.219327584365	0.3
14067	48193	60.424966983741	1.2
14067	48625	60.824966983741	0.4
14067	48971	61.128883466263	0.3
14067	49528	61.510759656923	0.6
14067	49707	61.633045591524	0.5
14067	49750	61.674651695631	0.5
14067	49871	61.77523126823	0.1
14067	50462	62.27523126823	0.5
14067	50942	62.680437962181	0.4
14067	51952	63.480537962191	0.8
14067	52421	63.780537962191	0.3
14067	52709	63.987616608787	0.2
14067	53121	64.288615818004	0.3
14067	53266	64.397484777657	0.1
14067	53878	64.907415263439	0.5
14067	54094	65.1229716343	0.2
14067	54472	65.534355431243	0.4
14067	54600	65.645990779967	0.3
14067	54753	65.747070563553	0.1
14067	55086	66.047070563553	0.3
14067	55693	66.541892082697	0.2
14067	56326	67.046040088565	0.5
14067	56559	67.25601208816	0.2
14067	57024	67.648883763231	1.6
14067	57227	67.863944557897	0.6
14067	59131	69.464044557907	1.6
14067	59740	69.971430723917	0.5
14067	59859	70.071530723927	0.1
14067	60990	71.071530723927	1
14067	61384	71.37742219349	0.3
14067	62710	72.516785308058	0.6
14067	63095	72.816785308058	0.3
14067	63653	73.242545568452	0.3
14067	63734	73.324853402693	0.5