version 2
run Stability-89-20130528-00:56:10-21385
attr configname Stability
attr datetime 20130528-00:56:10
attr experiment Stability
attr inifile omnetpp.ini
attr iterationvars $0=1e-2
attr iterationvars2 "$0=1e-2, $repetition=9"
attr measurement $0=1e-2
attr network Network
attr processid 21385
attr repetition 9
attr replication #9
attr resultdir results
attr runnumber 89
attr seedset 89

vector 8729  Network.churner  inGoingSizeSig:vector  ETV
vector 8648  Network.dyn_peer[5]  lookupHopsSig:vector  ETV
vector 8649  Network.dyn_peer[5]  lookupStabilitySig:vector  ETV
vector 8650  Network.dyn_peer[5]  lookupTimeSig:vector  ETV
vector 8675  Network.dyn_peer[14]  lookupHopsSig:vector  ETV
vector 8676  Network.dyn_peer[14]  lookupStabilitySig:vector  ETV
vector 8677  Network.dyn_peer[14]  lookupTimeSig:vector  ETV
vector 8699  Network.dyn_peer[22]  lookupHopsSig:vector  ETV
vector 8700  Network.dyn_peer[22]  lookupStabilitySig:vector  ETV
vector 8701  Network.dyn_peer[22]  lookupTimeSig:vector  ETV
vector 8633  Network.dyn_peer[0]  lookupHopsSig:vector  ETV
vector 8634  Network.dyn_peer[0]  lookupStabilitySig:vector  ETV
vector 8635  Network.dyn_peer[0]  lookupTimeSig:vector  ETV
vector 8636  Network.dyn_peer[1]  lookupHopsSig:vector  ETV
vector 8637  Network.dyn_peer[1]  lookupStabilitySig:vector  ETV
vector 8638  Network.dyn_peer[1]  lookupTimeSig:vector  ETV
vector 8639  Network.dyn_peer[2]  lookupHopsSig:vector  ETV
vector 8640  Network.dyn_peer[2]  lookupStabilitySig:vector  ETV
vector 8641  Network.dyn_peer[2]  lookupTimeSig:vector  ETV
vector 8654  Network.dyn_peer[7]  lookupHopsSig:vector  ETV
vector 8655  Network.dyn_peer[7]  lookupStabilitySig:vector  ETV
vector 8656  Network.dyn_peer[7]  lookupTimeSig:vector  ETV
vector 8657  Network.dyn_peer[8]  lookupHopsSig:vector  ETV
vector 8658  Network.dyn_peer[8]  lookupStabilitySig:vector  ETV
vector 8659  Network.dyn_peer[8]  lookupTimeSig:vector  ETV
vector 8669  Network.dyn_peer[12]  lookupHopsSig:vector  ETV
vector 8670  Network.dyn_peer[12]  lookupStabilitySig:vector  ETV
vector 8671  Network.dyn_peer[12]  lookupTimeSig:vector  ETV
vector 8693  Network.dyn_peer[20]  lookupHopsSig:vector  ETV
vector 8694  Network.dyn_peer[20]  lookupStabilitySig:vector  ETV
vector 8695  Network.dyn_peer[20]  lookupTimeSig:vector  ETV
vector 8702  Network.dyn_peer[23]  lookupHopsSig:vector  ETV
vector 8703  Network.dyn_peer[23]  lookupStabilitySig:vector  ETV
vector 8704  Network.dyn_peer[23]  lookupTimeSig:vector  ETV
vector 8705  Network.dyn_peer[24]  lookupHopsSig:vector  ETV
vector 8706  Network.dyn_peer[24]  lookupStabilitySig:vector  ETV
vector 8707  Network.dyn_peer[24]  lookupTimeSig:vector  ETV
vector 8714  Network.dyn_peer[27]  lookupHopsSig:vector  ETV
vector 8715  Network.dyn_peer[27]  lookupStabilitySig:vector  ETV
vector 8716  Network.dyn_peer[27]  lookupTimeSig:vector  ETV
vector 8723  Network.dyn_peer[30]  lookupHopsSig:vector  ETV
vector 8724  Network.dyn_peer[30]  lookupStabilitySig:vector  ETV
vector 8725  Network.dyn_peer[30]  lookupTimeSig:vector  ETV
vector 8651  Network.dyn_peer[6]  lookupHopsSig:vector  ETV
vector 8652  Network.dyn_peer[6]  lookupStabilitySig:vector  ETV
vector 8653  Network.dyn_peer[6]  lookupTimeSig:vector  ETV
vector 8660  Network.dyn_peer[9]  lookupHopsSig:vector  ETV
vector 8661  Network.dyn_peer[9]  lookupStabilitySig:vector  ETV
vector 8662  Network.dyn_peer[9]  lookupTimeSig:vector  ETV
vector 8672  Network.dyn_peer[13]  lookupHopsSig:vector  ETV
vector 8673  Network.dyn_peer[13]  lookupStabilitySig:vector  ETV
vector 8674  Network.dyn_peer[13]  lookupTimeSig:vector  ETV
vector 8684  Network.dyn_peer[17]  lookupHopsSig:vector  ETV
vector 8685  Network.dyn_peer[17]  lookupStabilitySig:vector  ETV
vector 8686  Network.dyn_peer[17]  lookupTimeSig:vector  ETV
vector 8687  Network.dyn_peer[18]  lookupHopsSig:vector  ETV
vector 8688  Network.dyn_peer[18]  lookupStabilitySig:vector  ETV
vector 8689  Network.dyn_peer[18]  lookupTimeSig:vector  ETV
vector 8708  Network.dyn_peer[25]  lookupHopsSig:vector  ETV
vector 8709  Network.dyn_peer[25]  lookupStabilitySig:vector  ETV
vector 8710  Network.dyn_peer[25]  lookupTimeSig:vector  ETV
vector 8717  Network.dyn_peer[28]  lookupHopsSig:vector  ETV
vector 8718  Network.dyn_peer[28]  lookupStabilitySig:vector  ETV
vector 8719  Network.dyn_peer[28]  lookupTimeSig:vector  ETV
vector 8663  Network.dyn_peer[10]  lookupHopsSig:vector  ETV
vector 8664  Network.dyn_peer[10]  lookupStabilitySig:vector  ETV
vector 8665  Network.dyn_peer[10]  lookupTimeSig:vector  ETV
vector 8666  Network.dyn_peer[11]  lookupHopsSig:vector  ETV
vector 8667  Network.dyn_peer[11]  lookupStabilitySig:vector  ETV
vector 8668  Network.dyn_peer[11]  lookupTimeSig:vector  ETV
vector 8681  Network.dyn_peer[16]  lookupHopsSig:vector  ETV
vector 8682  Network.dyn_peer[16]  lookupStabilitySig:vector  ETV
vector 8683  Network.dyn_peer[16]  lookupTimeSig:vector  ETV
vector 8711  Network.dyn_peer[26]  lookupHopsSig:vector  ETV
vector 8712  Network.dyn_peer[26]  lookupStabilitySig:vector  ETV
vector 8713  Network.dyn_peer[26]  lookupTimeSig:vector  ETV
vector 8726  Network.dyn_peer[31]  lookupHopsSig:vector  ETV
vector 8727  Network.dyn_peer[31]  lookupStabilitySig:vector  ETV
vector 8728  Network.dyn_peer[31]  lookupTimeSig:vector  ETV
vector 8642  Network.dyn_peer[3]  lookupHopsSig:vector  ETV
vector 8643  Network.dyn_peer[3]  lookupStabilitySig:vector  ETV
vector 8644  Network.dyn_peer[3]  lookupTimeSig:vector  ETV
vector 8645  Network.dyn_peer[4]  lookupHopsSig:vector  ETV
vector 8646  Network.dyn_peer[4]  lookupStabilitySig:vector  ETV
vector 8647  Network.dyn_peer[4]  lookupTimeSig:vector  ETV
vector 8678  Network.dyn_peer[15]  lookupHopsSig:vector  ETV
vector 8679  Network.dyn_peer[15]  lookupStabilitySig:vector  ETV
vector 8680  Network.dyn_peer[15]  lookupTimeSig:vector  ETV
vector 8696  Network.dyn_peer[21]  lookupHopsSig:vector  ETV
vector 8697  Network.dyn_peer[21]  lookupStabilitySig:vector  ETV
vector 8698  Network.dyn_peer[21]  lookupTimeSig:vector  ETV
vector 8720  Network.dyn_peer[29]  lookupHopsSig:vector  ETV
vector 8721  Network.dyn_peer[29]  lookupStabilitySig:vector  ETV
vector 8722  Network.dyn_peer[29]  lookupTimeSig:vector  ETV
vector 8690  Network.dyn_peer[19]  lookupHopsSig:vector  ETV
vector 8691  Network.dyn_peer[19]  lookupStabilitySig:vector  ETV
vector 8692  Network.dyn_peer[19]  lookupTimeSig:vector  ETV
8633	137	20.10001	1
8633	343	20.40001	2
8633	600	20.805899456727	3
8633	998	21.215564348387	4
8633	1713	21.724845762669	5
8633	2081	22.024845762669	2
8633	2410	22.324955762669	3
8633	3385	23.124955762669	8
8633	3490	23.229210925966	1
8633	3977	23.729210925966	4
8633	4417	24.143280410609	3
8633	5079	24.636637740882	8
8633	5558	25.039379722033	3
8633	6280	25.740430207889	6
8633	6375	25.833533795812	6
8633	6660	26.04909842338	2
8633	7303	26.558975133401	5
8633	8262	27.358975133401	9
8633	8934	27.968932445751	5
8633	9523	28.509324319958	8
8633	9548	28.553102218427	5
8633	9672	28.617952123833	1
8633	9901	28.85977761563	6
8633	10027	28.958077653695	4
8633	11316	30.060745423152	11
8633	11729	30.460745423152	3
8633	12758	31.361949089632	10
8633	13170	31.769698735288	4
8633	13501	31.98995366172	1
8633	14200	32.584253306999	8
8633	14250	32.599824599882	6
8633	14453	32.785164588485	1
8633	14716	33.000141898018	3
8633	14798	33.045362138133	3
8633	14991	33.225502100676	12
8633	15176	33.347881826369	2
8633	15863	33.956632440488	7
8633	16273	34.356632440488	3
8633	16283	34.377270024952	1
8633	17100	35.162051426686	7
8633	17962	35.762161426686	7
8633	18279	36.062161426686	2
8633	18731	36.468837087249	4
8633	18810	36.538255971065	2
8633	18925	36.642838492216	1
8633	19090	36.745060595776	2
8633	19401	37.045060595776	2
8633	19784	37.351606106652	2
8633	20210	37.76350613056	3
8633	20719	38.265062441752	5
8633	21062	38.665062441752	3
8633	22135	39.568464736377	3
8633	22212	39.641713329435	5
8633	22675	40.048565738092	4
8633	24313	41.448565738092	15
8633	24739	41.855559657038	3
8633	24973	42.162062822248	2
8633	25214	42.393588248929	7
8633	25366	42.565295795249	3
8633	25391	42.597671640629	1
8633	26024	43.198206284549	6
8633	26339	43.498206284549	3
8633	26888	43.90513648617	3
8633	28203	45.00524648617	13
8633	29088	45.90524648617	9
8633	29879	46.520620503845	5
8633	30107	46.741437764063	10
8633	31307	47.751445449235	12
8633	32119	48.464247998894	4
8633	32817	49.071753003982	6
8633	33314	49.471753003982	3
8633	34103	50.178203703293	6
8633	34135	50.191517429675	4
8633	34808	50.805410290488	6
8633	35388	51.385378488269	12
8633	35598	51.591900840154	1
8633	36032	51.893296055113	2
8633	36086	51.923670525326	2
8633	36467	52.209885532882	15
8633	36563	52.242358952884	2
8633	36616	52.30448117554	3
8633	37257	52.812034432614	5
8633	37696	53.212034432614	3
8633	38282	53.619941466714	3
8633	38502	53.824151587693	1
8633	38652	53.974595985109	5
8633	38819	54.13870580073	2
8633	40541	55.442502380035	14
8633	41113	55.842502380035	4
8633	41741	56.347660557025	5
8633	41763	56.371374927021	1
8633	42421	56.945844597343	10
8633	42602	57.076213555473	7
8633	42993	57.376625281422	4
8633	43077	57.453383979315	11
8633	43546	57.76329125151	3
8633	43969	58.068307002191	2
8633	44813	58.763530665632	8
8633	44831	58.773155303343	7
8633	45106	58.976419674542	1
8633	45110	58.980186056598	1
8633	45604	59.396313848336	4
8633	45608	59.398705535438	4
8633	46785	60.398815535438	11
8633	47389	60.898815535438	5
8633	47593	61.101999183137	1
8633	47796	61.306488902047	1
8633	48349	61.805023062619	3
8633	48500	61.908532078242	6
8633	48631	62.012899607211	1
8633	49187	62.420434134505	4
8633	49952	63.120434134505	7
8633	50763	63.921044600681	8
8633	51206	64.321044600681	3
8633	52237	65.321741592558	10
8633	53426	66.378358251028	11
8633	53703	66.588024310283	2
8633	54078	66.888024310283	2
8633	54862	67.692639995931	7
8633	55222	68.001379214328	2
8633	55393	68.109518823212	1
8633	56170	68.809518823212	6
8633	56778	69.309628823212	5
8633	57490	69.909628823212	5
8633	58171	70.467893458121	8
8633	58761	70.914249851499	11
8633	59236	71.274004707639	9
8633	59264	71.28721134274	7
8633	59650	71.594875875327	3
8633	60020	71.894875875327	2
8633	60509	72.302242809899	4
8633	60888	72.608930230079	2
8633	61121	72.822181750034	1
8633	61686	73.225419877552	4
8633	62467	73.925419877552	6
8633	63152	74.500619727228	3
8633	63277	74.529991291557	5
8633	64183	75.304782271293	7
8633	64248	75.315807036001	7
8633	64507	75.513858334694	4
8633	65200	76.013968334694	5
8633	65911	76.621180844544	6
8633	66474	77.122389856087	5
8633	66533	77.13372325702	2
8633	68147	78.438870216737	14
8633	68402	78.638870216737	1
8633	68580	78.760684254135	1
8633	68772	78.947133278735	2
8633	69038	79.154457640692	2
8633	69765	79.754457640692	5
8633	70371	80.259886254019	5
8633	70856	80.659886254019	3
8633	71270	80.962783915039	2
8633	71512	81.172153994165	1
8633	72415	81.877453420443	7
8633	72978	82.277453420443	3
8633	73675	82.982126716032	6
8633	74043	83.293994366849	2
8633	74324	83.599064549641	2
8633	74385	83.684890327834	7
8633	74673	83.906973690955	11
8633	74855	84.086794059992	3
8633	75093	84.292304108641	1
8633	75163	84.312679894648	3
8633	75237	84.399116835792	7
8633	75709	84.695674349204	5
8633	75781	84.718737741261	5
8633	75818	84.794835226914	5
8633	76923	85.697207513904	9
8633	77664	86.299978855049	4
8633	77777	86.397207513904	7
8633	77925	86.512676043132	3
8633	77994	86.554441546045	3
8633	78572	87.024919460207	8
8633	79145	87.527283306179	6
8633	79772	88.027283306179	4
8633	80126	88.332118868193	2
8633	80332	88.541014659496	1
8633	80439	88.641124659496	1
8633	81394	89.541124659496	9
8633	82415	90.441236877083	8
8633	82739	90.70847694199	5
8633	83037	90.949342940501	4
8633	83549	91.355915275728	4
8633	84182	91.855915275728	5
8633	85374	92.820965022303	8
8633	85789	93.130741334834	3
8633	85817	93.143337190264	3
8633	86281	93.458352783065	17
8633	86548	93.663527736921	1
8633	86595	93.745777209402	5
8633	87245	94.351907356618	6
8633	87502	94.554946082538	1
8633	87626	94.664272150551	1
8633	88624	95.403971854771	5
8633	88837	95.603971854771	1
8633	89673	96.415548281244	7
8633	90192	96.815658281244	6
8633	90624	97.215658281244	3
8633	91181	97.61910615952	3
8633	91968	98.321408113209	7
8633	92674	98.921408113209	5
8633	93073	99.326739743384	4
8633	93324	99.575744703041	5
8633	93422	99.631799962527	2
8633	93829	99.933317341375	3
8633	93937	100.001583638222	3
8633	94020	100.07650356551	7
8633	94958	100.685481353894	7
8633	95631	101.285481353894	5
8633	95776	101.486352638924	1
8633	96351	101.992073302802	4
8633	96721	102.29675068489	2
8633	97191	102.7024096363	13
8633	97303	102.80043227786	4
8633	97313	102.803117140398	4
8633	97839	103.205819616367	4
8633	98965	104.14385697388	5
8633	100098	105.044432315786	10
8633	100818	105.644432315786	5
8633	101517	106.222228695561	2
8633	102840	107.326909288815	12
8633	103860	108.026909288815	7
8633	104769	108.727662095251	5
8633	105137	109.034277611447	2
8633	105476	109.341052830796	2
8633	105505	109.384676720261	2
8633	106449	110.287384670021	10
8633	107260	110.987384670021	6
8633	107968	111.593758671659	5
8633	108225	111.795238035266	2
8633	109063	112.424910531624	2
8633	109567	112.924910531624	4
8633	110347	113.627064153494	6
8633	110365	113.654448527421	1
8633	111111	114.167697595781	5
8633	111875	114.767697595781	5
8633	112894	115.628169326951	6
8633	113037	115.730825604204	1
8633	113940	116.430825604204	6
8633	114690	117.039936086431	5
8633	115041	117.242353082789	2
8633	115548	117.642353082789	3
8633	115819	117.847942970291	1
8633	116609	118.452452038103	5
8633	117052	118.795231893872	2
8633	117316	119.012286394983	2
8633	117334	119.012396394983	0
8633	117892	119.512396394983	5
8633	118215	119.818806893019	2
8633	118724	120.218842251204	3
8633	118959	120.419940307495	1
8633	119280	120.628997072726	2
8633	119874	121.128201102345	6
8633	120608	121.731817964076	6
8633	121108	122.132295751681	3
8633	121125	122.141172452801	3
8633	121345	122.333822522905	17
8633	121356	122.339366270035	2
8633	121759	122.645779604729	4
8633	121774	122.661871182365	4
8633	122039	122.866318669446	2
8633	123029	123.666518669446	5
8633	123255	123.866518669446	1
8633	123604	124.173407859264	2
8633	124001	124.479392019672	3
8633	124730	125.181895561378	7
8633	125357	125.681895561378	5
8633	125804	126.062002378413	3
8633	126280	126.471317901548	4
8633	127407	127.480859423109	9
8633	127680	127.700198224567	1
8633	128139	128.102267385686	3
8633	128350	128.312190647851	1
8633	129103	129.015978350962	7
8633	130040	129.815978350962	7
8633	130806	130.517842813456	6
8633	131588	131.138778396368	6
8633	131905	131.392011169319	8
8633	131974	131.451503349169	2
8633	132470	131.859544958822	3
8633	133271	132.395641670991	9
8633	133275	132.398717841646	9
8633	133492	132.570425638775	7
8633	134312	133.272678552447	7
8633	135495	134.272678552447	10
8633	137065	135.781750552303	16
8633	137692	136.381750552303	5
8633	138081	136.784109695726	3
8633	138288	136.988515034767	1
8633	138403	137.106855476284	0
8633	138443	137.123504420461	1
8633	138532	137.232076541815	4
8633	138587	137.313194877137	1
8634	137	20.10001	0.875
8634	343	20.40001	0.75
8634	600	20.805899456727	0.625
8634	998	21.215564348387	0.5
8634	1713	21.724845762669	0.375
8634	2081	22.024845762669	0.75
8634	2410	22.324955762669	0.625
8634	3385	23.124955762669	0
8634	3490	23.229210925966	0.875
8634	3977	23.729210925966	0.5
8634	4417	24.143280410609	0.625
8634	5079	24.636637740882	0
8634	5558	25.039379722033	0.625
8634	6280	25.740430207889	0.25
8634	6375	25.833533795812	0.25
8634	6660	26.04909842338	0.75
8634	7303	26.558975133401	0.375
8634	8262	27.358975133401	-0.125
8634	8934	27.968932445751	0.375
8634	9523	28.509324319958	0
8634	9548	28.553102218427	0.375
8634	9672	28.617952123833	0.875
8634	9901	28.85977761563	0.25
8634	10027	28.958077653695	0.5
8634	11316	30.060745423152	-0.375
8634	11729	30.460745423152	0.625
8634	12758	31.361949089632	-0.25
8634	13170	31.769698735288	0.5
8634	13501	31.98995366172	0.875
8634	14200	32.584253306999	0
8634	14250	32.599824599882	0.25
8634	14453	32.785164588485	0.875
8634	14716	33.000141898018	0.625
8634	14798	33.045362138133	0.625
8634	14991	33.225502100676	-0.5
8634	15176	33.347881826369	0.75
8634	15863	33.956632440488	0.125
8634	16273	34.356632440488	0.625
8634	16283	34.377270024952	0.875
8634	17100	35.162051426686	0.125
8634	17962	35.762161426686	0.125
8634	18279	36.062161426686	0.75
8634	18731	36.468837087249	0.5
8634	18810	36.538255971065	0.75
8634	18925	36.642838492216	0.875
8634	19090	36.745060595776	0.75
8634	19401	37.045060595776	0.75
8634	19784	37.351606106652	0.75
8634	20210	37.76350613056	0.625
8634	20719	38.265062441752	0.375
8634	21062	38.665062441752	0.625
8634	22135	39.568464736377	0.625
8634	22212	39.641713329435	0.375
8634	22675	40.048565738092	0.5
8634	24313	41.448565738092	-0.875
8634	24739	41.855559657038	0.625
8634	24973	42.162062822248	0.75
8634	25214	42.393588248929	0.125
8634	25366	42.565295795249	0.625
8634	25391	42.597671640629	0.875
8634	26024	43.198206284549	0.25
8634	26339	43.498206284549	0.625
8634	26888	43.90513648617	0.625
8634	28203	45.00524648617	-0.625
8634	29088	45.90524648617	-0.125
8634	29879	46.520620503845	0.375
8634	30107	46.741437764063	-0.25
8634	31307	47.751445449235	-0.5
8634	32119	48.464247998894	0.5
8634	32817	49.071753003982	0.25
8634	33314	49.471753003982	0.625
8634	34103	50.178203703293	0.25
8634	34135	50.191517429675	0.5
8634	34808	50.805410290488	0.25
8634	35388	51.385378488269	-0.5
8634	35598	51.591900840154	0.875
8634	36032	51.893296055113	0.75
8634	36086	51.923670525326	0.75
8634	36467	52.209885532882	-0.875
8634	36563	52.242358952884	0.75
8634	36616	52.30448117554	0.625
8634	37257	52.812034432614	0.375
8634	37696	53.212034432614	0.625
8634	38282	53.619941466714	0.625
8634	38502	53.824151587693	0.875
8634	38652	53.974595985109	0.375
8634	38819	54.13870580073	0.75
8634	40541	55.442502380035	-0.75
8634	41113	55.842502380035	0.5
8634	41741	56.347660557025	0.375
8634	41763	56.371374927021	0.875
8634	42421	56.945844597343	-0.25
8634	42602	57.076213555473	0.125
8634	42993	57.376625281422	0.5
8634	43077	57.453383979315	-0.375
8634	43546	57.76329125151	0.625
8634	43969	58.068307002191	0.75
8634	44813	58.763530665632	0
8634	44831	58.773155303343	0.125
8634	45106	58.976419674542	0.875
8634	45110	58.980186056598	0.875
8634	45604	59.396313848336	0.5
8634	45608	59.398705535438	0.5
8634	46785	60.398815535438	-0.375
8634	47389	60.898815535438	0.375
8634	47593	61.101999183137	0.875
8634	47796	61.306488902047	0.875
8634	48349	61.805023062619	0.625
8634	48500	61.908532078242	0.25
8634	48631	62.012899607211	0.875
8634	49187	62.420434134505	0.5
8634	49952	63.120434134505	0.125
8634	50763	63.921044600681	0
8634	51206	64.321044600681	0.625
8634	52237	65.321741592558	-0.25
8634	53426	66.378358251028	-0.375
8634	53703	66.588024310283	0.75
8634	54078	66.888024310283	0.75
8634	54862	67.692639995931	0.125
8634	55222	68.001379214328	0.75
8634	55393	68.109518823212	0.875
8634	56170	68.809518823212	0.25
8634	56778	69.309628823212	0.375
8634	57490	69.909628823212	0.375
8634	58171	70.467893458121	0
8634	58761	70.914249851499	-0.375
8634	59236	71.274004707639	-0.125
8634	59264	71.28721134274	0.125
8634	59650	71.594875875327	0.625
8634	60020	71.894875875327	0.75
8634	60509	72.302242809899	0.5
8634	60888	72.608930230079	0.75
8634	61121	72.822181750034	0.875
8634	61686	73.225419877552	0.5
8634	62467	73.925419877552	0.25
8634	63152	74.500619727228	0.625
8634	63277	74.529991291557	0.375
8634	64183	75.304782271293	0.125
8634	64248	75.315807036001	0.125
8634	64507	75.513858334694	0.5
8634	65200	76.013968334694	0.375
8634	65911	76.621180844544	0.25
8634	66474	77.122389856087	0.375
8634	66533	77.13372325702	0.75
8634	68147	78.438870216737	-0.75
8634	68402	78.638870216737	0.875
8634	68580	78.760684254135	0.875
8634	68772	78.947133278735	0.77777777612209
8634	69038	79.154457640692	0.75
8634	69765	79.754457640692	0.375
8634	70371	80.259886254019	0.375
8634	70856	80.659886254019	0.625
8634	71270	80.962783915039	0.75
8634	71512	81.172153994165	0.875
8634	72415	81.877453420443	0.125
8634	72978	82.277453420443	0.625
8634	73675	82.982126716032	0.25
8634	74043	83.293994366849	0.75
8634	74324	83.599064549641	0.75
8634	74385	83.684890327834	0.125
8634	74673	83.906973690955	-0.375
8634	74855	84.086794059992	0.625
8634	75093	84.292304108641	0.875
8634	75163	84.312679894648	0.625
8634	75237	84.399116835792	0.125
8634	75709	84.695674349204	0.375
8634	75781	84.718737741261	0.375
8634	75818	84.794835226914	0.375
8634	76923	85.697207513904	-0.125
8634	77664	86.299978855049	0.5
8634	77777	86.397207513904	0.125
8634	77925	86.512676043132	0.625
8634	77994	86.554441546045	0.625
8634	78572	87.024919460207	0
8634	79145	87.527283306179	0.25
8634	79772	88.027283306179	0.5
8634	80126	88.332118868193	0.75
8634	80332	88.541014659496	0.875
8634	80439	88.641124659496	0.875
8634	81394	89.541124659496	-0.125
8634	82415	90.441236877083	0
8634	82739	90.70847694199	0.375
8634	83037	90.949342940501	0.5
8634	83549	91.355915275728	0.5
8634	84182	91.855915275728	0.375
8634	85374	92.820965022303	0
8634	85789	93.130741334834	0.625
8634	85817	93.143337190264	0.625
8634	86281	93.458352783065	-1.125
8634	86548	93.663527736921	0.875
8634	86595	93.745777209402	0.375
8634	87245	94.351907356618	0.25
8634	87502	94.554946082538	0.875
8634	87626	94.664272150551	0.875
8634	88624	95.403971854771	0.375
8634	88837	95.603971854771	0.875
8634	89673	96.415548281244	0.125
8634	90192	96.815658281244	0.25
8634	90624	97.215658281244	0.625
8634	91181	97.61910615952	0.625
8634	91968	98.321408113209	0.125
8634	92674	98.921408113209	0.375
8634	93073	99.326739743384	0.5
8634	93324	99.575744703041	0.375
8634	93422	99.631799962527	0.75
8634	93829	99.933317341375	0.625
8634	93937	100.001583638222	0.625
8634	94020	100.07650356551	0.125
8634	94958	100.685481353894	0.125
8634	95631	101.285481353894	0.375
8634	95776	101.486352638924	0.875
8634	96351	101.992073302802	0.5
8634	96721	102.29675068489	0.75
8634	97191	102.7024096363	-0.625
8634	97303	102.80043227786	0.5
8634	97313	102.803117140398	0.5
8634	97839	103.205819616367	0.5
8634	98965	104.14385697388	0.375
8634	100098	105.044432315786	-0.25
8634	100818	105.644432315786	0.375
8634	101517	106.222228695561	0.75
8634	102840	107.326909288815	-0.5
8634	103860	108.026909288815	0.125
8634	104769	108.727662095251	0.375
8634	105137	109.034277611447	0.75
8634	105476	109.341052830796	0.75
8634	105505	109.384676720261	0.75
8634	106449	110.287384670021	-0.25
8634	107260	110.987384670021	0.25
8634	107968	111.593758671659	0.375
8634	108225	111.795238035266	0.75
8634	109063	112.424910531624	0.75
8634	109567	112.924910531624	0.5
8634	110347	113.627064153494	0.25
8634	110365	113.654448527421	0.875
8634	111111	114.167697595781	0.375
8634	111875	114.767697595781	0.375
8634	112894	115.628169326951	0.25
8634	113037	115.730825604204	0.875
8634	113940	116.430825604204	0.25
8634	114690	117.039936086431	0.375
8634	115041	117.242353082789	0.75
8634	115548	117.642353082789	0.625
8634	115819	117.847942970291	0.875
8634	116609	118.452452038103	0.375
8634	117052	118.795231893872	0.75
8634	117316	119.012286394983	0.75
8634	117334	119.012396394983	1
8634	117892	119.512396394983	0.375
8634	118215	119.818806893019	0.75
8634	118724	120.218842251204	0.625
8634	118959	120.419940307495	0.875
8634	119280	120.628997072726	0.75
8634	119874	121.128201102345	0.25
8634	120608	121.731817964076	0.25
8634	121108	122.132295751681	0.625
8634	121125	122.141172452801	0.625
8634	121345	122.333822522905	-1.125
8634	121356	122.339366270035	0.75
8634	121759	122.645779604729	0.5
8634	121774	122.661871182365	0.5
8634	122039	122.866318669446	0.75
8634	123029	123.666518669446	0.375
8634	123255	123.866518669446	0.875
8634	123604	124.173407859264	0.75
8634	124001	124.479392019672	0.625
8634	124730	125.181895561378	0.125
8634	125357	125.681895561378	0.375
8634	125804	126.062002378413	0.625
8634	126280	126.471317901548	0.5
8634	127407	127.480859423109	-0.125
8634	127680	127.700198224567	0.875
8634	128139	128.102267385686	0.625
8634	128350	128.312190647851	0.875
8634	129103	129.015978350962	0.125
8634	130040	129.815978350962	0.125
8634	130806	130.517842813456	0.25
8634	131588	131.138778396368	0.25
8634	131905	131.392011169319	0
8634	131974	131.451503349169	0.75
8634	132470	131.859544958822	0.625
8634	133271	132.395641670991	-0.125
8634	133275	132.398717841646	-0.125
8634	133492	132.570425638775	0.125
8634	134312	133.272678552447	0.125
8634	135495	134.272678552447	-0.25
8634	137065	135.781750552303	-1
8634	137692	136.381750552303	0.375
8634	138081	136.784109695726	0.625
8634	138288	136.988515034767	0.875
8634	138403	137.106855476284	1
8634	138443	137.123504420461	0.875
8634	138532	137.232076541815	0.5
8634	138587	137.313194877137	0.875
8635	137	20.10001	0.1
8635	343	20.40001	0.3
8635	600	20.805899456727	0.4
8635	998	21.215564348387	0.4
8635	1713	21.724845762669	0.5
8635	2081	22.024845762669	0.3
8635	2410	22.324955762669	0.3
8635	3385	23.124955762669	0.8
8635	3490	23.229210925966	0.1
8635	3977	23.729210925966	0.5
8635	4417	24.143280410609	0.4
8635	5079	24.636637740882	0.9
8635	5558	25.039379722033	0.4
8635	6280	25.740430207889	0.7
8635	6375	25.833533795812	0.7
8635	6660	26.04909842338	0.3
8635	7303	26.558975133401	0.5
8635	8262	27.358975133401	0.8
8635	8934	27.968932445751	0.6
8635	9523	28.509324319958	0.8
8635	9548	28.553102218427	0.6
8635	9672	28.617952123833	0.1
8635	9901	28.85977761563	0.6
8635	10027	28.958077653695	0.4
8635	11316	30.060745423152	1.1
8635	11729	30.460745423152	0.4
8635	12758	31.361949089632	0.9
8635	13170	31.769698735288	0.4
8635	13501	31.98995366172	0.2
8635	14200	32.584253306999	0.8
8635	14250	32.599824599882	0.6
8635	14453	32.785164588485	0.2
8635	14716	33.000141898018	0.4
8635	14798	33.045362138133	0.4
8635	14991	33.225502100676	1.1
8635	15176	33.347881826369	0.3
8635	15863	33.956632440488	0.6
8635	16273	34.356632440488	0.4
8635	16283	34.377270024952	0.2
8635	17100	35.162051426686	0.8
8635	17962	35.762161426686	0.6
8635	18279	36.062161426686	0.3
8635	18731	36.468837087249	0.4
8635	18810	36.538255971065	0.3
8635	18925	36.642838492216	0.1
8635	19090	36.745060595776	0.1
8635	19401	37.045060595776	0.3
8635	19784	37.351606106652	0.3
8635	20210	37.76350613056	0.4
8635	20719	38.265062441752	0.5
8635	21062	38.665062441752	0.4
8635	22135	39.568464736377	0.4
8635	22212	39.641713329435	0.4
8635	22675	40.048565738092	0.4
8635	24313	41.448565738092	1.4
8635	24739	41.855559657038	0.4
8635	24973	42.162062822248	0.3
8635	25214	42.393588248929	0.8
8635	25366	42.565295795249	0.4
8635	25391	42.597671640629	0.2
8635	26024	43.198206284549	0.6
8635	26339	43.498206284549	0.3
8635	26888	43.90513648617	0.4
8635	28203	45.00524648617	1.1
8635	29088	45.90524648617	0.9
8635	29879	46.520620503845	0.6
8635	30107	46.741437764063	1
8635	31307	47.751445449235	1
8635	32119	48.464247998894	0.4
8635	32817	49.071753003982	0.6
8635	33314	49.471753003982	0.4
8635	34103	50.178203703293	0.7
8635	34135	50.191517429675	0.5
8635	34808	50.805410290488	0.6
8635	35388	51.385378488269	1.2
8635	35598	51.591900840154	0.2
8635	36032	51.893296055113	0.3
8635	36086	51.923670525326	0.3
8635	36467	52.209885532882	1.4
8635	36563	52.242358952884	0.3
8635	36616	52.30448117554	0.4
8635	37257	52.812034432614	0.5
8635	37696	53.212034432614	0.4
8635	38282	53.619941466714	0.4
8635	38502	53.824151587693	0.2
8635	38652	53.974595985109	0.6
8635	38819	54.13870580073	0.3
8635	40541	55.442502380035	1.3
8635	41113	55.842502380035	0.4
8635	41741	56.347660557025	0.5
8635	41763	56.371374927021	0.2
8635	42421	56.945844597343	1
8635	42602	57.076213555473	0.7
8635	42993	57.376625281422	0.4
8635	43077	57.453383979315	1.1
8635	43546	57.76329125151	0.3
8635	43969	58.068307002191	0.3
8635	44813	58.763530665632	0.8
8635	44831	58.773155303343	0.7
8635	45106	58.976419674542	0.2
8635	45110	58.980186056598	0.2
8635	45604	59.396313848336	0.4
8635	45608	59.398705535438	0.4
8635	46785	60.398815535438	1
8635	47389	60.898815535438	0.5
8635	47593	61.101999183137	0.2
8635	47796	61.306488902047	0.2
8635	48349	61.805023062619	0.4
8635	48500	61.908532078242	0.6
8635	48631	62.012899607211	0.2
8635	49187	62.420434134505	0.4
8635	49952	63.120434134505	0.7
8635	50763	63.921044600681	0.8
8635	51206	64.321044600681	0.4
8635	52237	65.321741592558	1
8635	53426	66.378358251028	1
8635	53703	66.588024310283	0.2
8635	54078	66.888024310283	0.3
8635	54862	67.692639995931	0.8
8635	55222	68.001379214328	0.3
8635	55393	68.109518823212	0.1
8635	56170	68.809518823212	0.7
8635	56778	69.309628823212	0.5
8635	57490	69.909628823212	0.6
8635	58171	70.467893458121	0.9
8635	58761	70.914249851499	1
8635	59236	71.274004707639	0.8
8635	59264	71.28721134274	0.7
8635	59650	71.594875875327	0.3
8635	60020	71.894875875327	0.3
8635	60509	72.302242809899	0.4
8635	60888	72.608930230079	0.3
8635	61121	72.822181750034	0.2
8635	61686	73.225419877552	0.4
8635	62467	73.925419877552	0.7
8635	63152	74.500619727228	0.4
8635	63277	74.529991291557	0.6
8635	64183	75.304782271293	0.8
8635	64248	75.315807036001	0.8
8635	64507	75.513858334694	0.5
8635	65200	76.013968334694	0.5
8635	65911	76.621180844544	0.6
8635	66474	77.122389856087	0.5
8635	66533	77.13372325702	0.3
8635	68147	78.438870216737	1.3
8635	68402	78.638870216737	0.2
8635	68580	78.760684254135	0.2
8635	68772	78.947133278735	0.3
8635	69038	79.154457640692	0.2
8635	69765	79.754457640692	0.6
8635	70371	80.259886254019	0.5
8635	70856	80.659886254019	0.4
8635	71270	80.962783915039	0.3
8635	71512	81.172153994165	0.2
8635	72415	81.877453420443	0.7
8635	72978	82.277453420443	0.4
8635	73675	82.982126716032	0.7
8635	74043	83.293994366849	0.3
8635	74324	83.599064549641	0.3
8635	74385	83.684890327834	0.7
8635	74673	83.906973690955	1.1
8635	74855	84.086794059992	0.4
8635	75093	84.292304108641	0.2
8635	75163	84.312679894648	0.4
8635	75237	84.399116835792	0.8
8635	75709	84.695674349204	0.4
8635	75781	84.718737741261	0.4
8635	75818	84.794835226914	0.4
8635	76923	85.697207513904	0.9
8635	77664	86.299978855049	0.5
8635	77777	86.397207513904	0.7