version 2
run Stability-19-20130528-00:51:25-21385
attr configname Stability
attr datetime 20130528-00:51:25
attr experiment Stability
attr inifile omnetpp.ini
attr iterationvars $0=1e5
attr iterationvars2 "$0=1e5, $repetition=9"
attr measurement $0=1e5
attr network Network
attr processid 21385
attr repetition 9
attr replication #9
attr resultdir results
attr runnumber 19
attr seedset 19

vector 1939  Network.churner  inGoingSizeSig:vector  ETV
vector 1843  Network.dyn_peer[0]  lookupHopsSig:vector  ETV
vector 1844  Network.dyn_peer[0]  lookupStabilitySig:vector  ETV
vector 1845  Network.dyn_peer[0]  lookupTimeSig:vector  ETV
vector 1846  Network.dyn_peer[1]  lookupHopsSig:vector  ETV
vector 1847  Network.dyn_peer[1]  lookupStabilitySig:vector  ETV
vector 1848  Network.dyn_peer[1]  lookupTimeSig:vector  ETV
vector 1849  Network.dyn_peer[2]  lookupHopsSig:vector  ETV
vector 1850  Network.dyn_peer[2]  lookupStabilitySig:vector  ETV
vector 1851  Network.dyn_peer[2]  lookupTimeSig:vector  ETV
vector 1852  Network.dyn_peer[3]  lookupHopsSig:vector  ETV
vector 1853  Network.dyn_peer[3]  lookupStabilitySig:vector  ETV
vector 1854  Network.dyn_peer[3]  lookupTimeSig:vector  ETV
vector 1855  Network.dyn_peer[4]  lookupHopsSig:vector  ETV
vector 1856  Network.dyn_peer[4]  lookupStabilitySig:vector  ETV
vector 1857  Network.dyn_peer[4]  lookupTimeSig:vector  ETV
vector 1858  Network.dyn_peer[5]  lookupHopsSig:vector  ETV
vector 1859  Network.dyn_peer[5]  lookupStabilitySig:vector  ETV
vector 1860  Network.dyn_peer[5]  lookupTimeSig:vector  ETV
vector 1861  Network.dyn_peer[6]  lookupHopsSig:vector  ETV
vector 1862  Network.dyn_peer[6]  lookupStabilitySig:vector  ETV
vector 1863  Network.dyn_peer[6]  lookupTimeSig:vector  ETV
vector 1864  Network.dyn_peer[7]  lookupHopsSig:vector  ETV
vector 1865  Network.dyn_peer[7]  lookupStabilitySig:vector  ETV
vector 1866  Network.dyn_peer[7]  lookupTimeSig:vector  ETV
vector 1867  Network.dyn_peer[8]  lookupHopsSig:vector  ETV
vector 1868  Network.dyn_peer[8]  lookupStabilitySig:vector  ETV
vector 1869  Network.dyn_peer[8]  lookupTimeSig:vector  ETV
vector 1870  Network.dyn_peer[9]  lookupHopsSig:vector  ETV
vector 1871  Network.dyn_peer[9]  lookupStabilitySig:vector  ETV
vector 1872  Network.dyn_peer[9]  lookupTimeSig:vector  ETV
vector 1873  Network.dyn_peer[10]  lookupHopsSig:vector  ETV
vector 1874  Network.dyn_peer[10]  lookupStabilitySig:vector  ETV
vector 1875  Network.dyn_peer[10]  lookupTimeSig:vector  ETV
vector 1876  Network.dyn_peer[11]  lookupHopsSig:vector  ETV
vector 1877  Network.dyn_peer[11]  lookupStabilitySig:vector  ETV
vector 1878  Network.dyn_peer[11]  lookupTimeSig:vector  ETV
vector 1879  Network.dyn_peer[12]  lookupHopsSig:vector  ETV
vector 1880  Network.dyn_peer[12]  lookupStabilitySig:vector  ETV
vector 1881  Network.dyn_peer[12]  lookupTimeSig:vector  ETV
vector 1882  Network.dyn_peer[13]  lookupHopsSig:vector  ETV
vector 1883  Network.dyn_peer[13]  lookupStabilitySig:vector  ETV
vector 1884  Network.dyn_peer[13]  lookupTimeSig:vector  ETV
vector 1885  Network.dyn_peer[14]  lookupHopsSig:vector  ETV
vector 1886  Network.dyn_peer[14]  lookupStabilitySig:vector  ETV
vector 1887  Network.dyn_peer[14]  lookupTimeSig:vector  ETV
vector 1888  Network.dyn_peer[15]  lookupHopsSig:vector  ETV
vector 1889  Network.dyn_peer[15]  lookupStabilitySig:vector  ETV
vector 1890  Network.dyn_peer[15]  lookupTimeSig:vector  ETV
vector 1891  Network.dyn_peer[16]  lookupHopsSig:vector  ETV
vector 1892  Network.dyn_peer[16]  lookupStabilitySig:vector  ETV
vector 1893  Network.dyn_peer[16]  lookupTimeSig:vector  ETV
vector 1894  Network.dyn_peer[17]  lookupHopsSig:vector  ETV
vector 1895  Network.dyn_peer[17]  lookupStabilitySig:vector  ETV
vector 1896  Network.dyn_peer[17]  lookupTimeSig:vector  ETV
vector 1897  Network.dyn_peer[18]  lookupHopsSig:vector  ETV
vector 1898  Network.dyn_peer[18]  lookupStabilitySig:vector  ETV
vector 1899  Network.dyn_peer[18]  lookupTimeSig:vector  ETV
vector 1900  Network.dyn_peer[19]  lookupHopsSig:vector  ETV
vector 1901  Network.dyn_peer[19]  lookupStabilitySig:vector  ETV
vector 1902  Network.dyn_peer[19]  lookupTimeSig:vector  ETV
vector 1903  Network.dyn_peer[20]  lookupHopsSig:vector  ETV
vector 1904  Network.dyn_peer[20]  lookupStabilitySig:vector  ETV
vector 1905  Network.dyn_peer[20]  lookupTimeSig:vector  ETV
vector 1906  Network.dyn_peer[21]  lookupHopsSig:vector  ETV
vector 1907  Network.dyn_peer[21]  lookupStabilitySig:vector  ETV
vector 1908  Network.dyn_peer[21]  lookupTimeSig:vector  ETV
vector 1909  Network.dyn_peer[22]  lookupHopsSig:vector  ETV
vector 1910  Network.dyn_peer[22]  lookupStabilitySig:vector  ETV
vector 1911  Network.dyn_peer[22]  lookupTimeSig:vector  ETV
vector 1912  Network.dyn_peer[23]  lookupHopsSig:vector  ETV
vector 1913  Network.dyn_peer[23]  lookupStabilitySig:vector  ETV
vector 1914  Network.dyn_peer[23]  lookupTimeSig:vector  ETV
vector 1915  Network.dyn_peer[24]  lookupHopsSig:vector  ETV
vector 1916  Network.dyn_peer[24]  lookupStabilitySig:vector  ETV
vector 1917  Network.dyn_peer[24]  lookupTimeSig:vector  ETV
vector 1918  Network.dyn_peer[25]  lookupHopsSig:vector  ETV
vector 1919  Network.dyn_peer[25]  lookupStabilitySig:vector  ETV
vector 1920  Network.dyn_peer[25]  lookupTimeSig:vector  ETV
vector 1921  Network.dyn_peer[26]  lookupHopsSig:vector  ETV
vector 1922  Network.dyn_peer[26]  lookupStabilitySig:vector  ETV
vector 1923  Network.dyn_peer[26]  lookupTimeSig:vector  ETV
vector 1924  Network.dyn_peer[27]  lookupHopsSig:vector  ETV
vector 1925  Network.dyn_peer[27]  lookupStabilitySig:vector  ETV
vector 1926  Network.dyn_peer[27]  lookupTimeSig:vector  ETV
vector 1927  Network.dyn_peer[28]  lookupHopsSig:vector  ETV
vector 1928  Network.dyn_peer[28]  lookupStabilitySig:vector  ETV
vector 1929  Network.dyn_peer[28]  lookupTimeSig:vector  ETV
vector 1930  Network.dyn_peer[29]  lookupHopsSig:vector  ETV
vector 1931  Network.dyn_peer[29]  lookupStabilitySig:vector  ETV
vector 1932  Network.dyn_peer[29]  lookupTimeSig:vector  ETV
vector 1933  Network.dyn_peer[30]  lookupHopsSig:vector  ETV
vector 1934  Network.dyn_peer[30]  lookupStabilitySig:vector  ETV
vector 1935  Network.dyn_peer[30]  lookupTimeSig:vector  ETV
vector 1936  Network.dyn_peer[31]  lookupHopsSig:vector  ETV
vector 1937  Network.dyn_peer[31]  lookupStabilitySig:vector  ETV
vector 1938  Network.dyn_peer[31]  lookupTimeSig:vector  ETV
1843	32	120.1	1
1843	35	120.3	1
1843	40	120.602868304888	2
1843	45	120.908979315096	2
1843	1067	3320.1	1
1843	1071	3320.4	2
1843	1077	3320.7113149101	2
1843	1081	3320.920251001894	1
1843	2066	6520.2	2
1843	2069	6520.4	1
1843	2074	6520.700923233078	2
1843	2079	6520.909620980046	1
1843	3090	9720.1	1
1843	3094	9720.4	2
1843	3102	9720.621322223765	1
1843	3108	9720.833547967347	1
1843	4133	12920.1	1
1843	4136	12920.3	1
1843	4141	12920.609658851672	2
1843	4145	12920.81055264139	1
1843	5178	16120.2	2
1843	5183	16120.505063394464	2
1843	5187	16120.708403654761	1
1843	5191	16120.911580069925	1
1843	6219	19320	0
1843	6223	19320.3	2
1843	6228	19320.514970089138	1
1843	6233	19320.726252426855	1
1843	7224	22520	0
1843	7227	22520.2	1
1843	7231	22520.402396227861	1
1843	7235	22520.608546409932	1
1843	8218	25720.2	2
1843	8223	25720.503839132327	2
1843	8230	25720.730458607586	1
1843	8237	25721.038854501789	2
1843	9277	28920.1	1
1843	9281	28920.4	2
1843	9292	28920.739168339418	2
1843	9297	28920.942811022865	1
1843	10329	32120	0
1843	10333	32120.209995330362	1
1843	10338	32120.511294761276	2
1843	10342	32120.715342275944	1
1843	11374	35320	0
1843	11378	35320.3	2
1843	11382	35320.502777722601	1
1843	11388	35320.810956332853	2
1843	12407	38520.1	1
1843	12412	38520.317058662445	1
1843	12416	38520.523339886761	1
1843	12421	38520.832053644256	2
1843	13442	41720.2	2
1843	13445	41720.4	1
1843	13449	41720.604729009352	1
1843	13454	41720.907030527309	2
1843	14472	44920.1	1
1843	14475	44920.3	1
1843	14481	44920.520547648443	1
1843	14486	44920.821113288642	2
1843	15537	48120.1	1
1843	15541	48120.4	2
1843	15545	48120.608085471563	1
1843	15550	48120.91267031926	2
1843	16551	51320	0
1843	16557	51320.313145186034	2
1843	16562	51320.618933831035	2
1843	16575	51320.961646731087	2
1843	17629	54520.1	1
1843	17633	54520.302956397375	1
1843	17637	54520.507596423337	1
1843	17644	54520.822012726321	2
1843	18677	57720.1	1
1843	18680	57720.3	1
1843	18684	57720.50929109418	1
1843	18695	57720.744252504935	1
1843	19663	60920.1	1
1843	19666	60920.3	1
1843	19670	60920.509034682065	1
1843	19679	60920.738683743898	1
1843	20689	64120	0
1843	20692	64120.2	1
1843	20696	64120.403934631356	1
1843	20700	64120.613309283637	1
1843	21749	67320.2	2
1843	21752	67320.4	1
1843	21756	67320.607085557491	1
1843	21761	67320.825492501569	1
1843	22803	70520.2	2
1843	22807	70520.5	2
1843	22812	70520.708792601718	1
1843	22819	70520.938657187102	1
1843	23851	73720.2	2
1843	23854	73720.4	1
1843	23859	73720.707470094815	2
1843	23867	73721.04060457981	2
1843	24875	76920.1	1
1843	24878	76920.3	1
1843	24883	76920.603446840918	2
1843	24890	76920.818206804094	1
1843	25910	80120.2	2
1843	25913	80120.4	1
1843	25917	80120.600316697026	1
1843	25923	80120.909797664335	2
1843	26934	83320.1	1
1843	26939	83320.318419624562	1
1843	26946	83320.637895162485	2
1843	26951	83320.846150731835	1
1843	27984	86520.1	1
1843	27987	86520.3	1
1843	27994	86520.614644997304	2
1843	27999	86520.917173803334	2
1843	29024	89720.2	2
1843	29028	89720.5	2
1843	29032	89720.702236144794	1
1843	29037	89721.009567659615	2
1843	30085	92920	0
1843	30089	92920.207657324739	1
1843	30093	92920.416586417006	1
1843	30099	92920.72428097014	2
1843	31150	96120.2	2
1843	31154	96120.5	2
1843	31159	96120.807327612061	2
1843	31163	96121.015101184444	1
1843	32140	99320	0
1843	32145	99320.213259442794	1
1843	32149	99320.417920864024	1
1843	32154	99320.62843385188	1
1843	33184	102520.2	2
1843	33188	102520.5	2
1843	33194	102520.809132340738	2
1843	33203	102521.046677398234	1
1843	34222	105720	0
1843	34226	105720.200831571582	1
1843	34230	105720.401045847811	1
1843	34234	105720.603182181258	1
1843	35252	108920.2	2
1843	35256	108920.409407025959	1
1843	35261	108920.719113681634	2
1843	35282	108920.998113248208	1
1843	36302	112120.2	2
1843	36306	112120.5	2
1843	36312	112120.806414921327	2
1843	36316	112121.010363565312	1
1843	37357	115320.2	2
1843	37361	115320.5	2
1843	37368	115320.817818347376	2
1843	37372	115321.025476141967	1
1843	38405	118520.1	1
1843	38408	118520.3	1
1843	38413	118520.605142886415	2
1843	38418	118520.909051516859	2
1843	39464	121720.1	1
1843	39467	121720.3	1
1843	39472	121720.511646116727	1
1843	39483	121720.849218074385	2
1843	40516	124920	0
1843	40519	124920.2	1
1843	40525	124920.410581959336	1
1843	40531	124920.721597852831	2
1843	41530	128120	0
1843	41534	128120.3	2
1843	41538	128120.50784605246	1
1843	41543	128120.810141404275	2
1843	42547	131320.1	1
1843	42550	131320.3	1
1843	42555	131320.605516031021	2
1843	42560	131320.812648295668	1
1843	43577	134520.1	1
1843	43582	134520.315106580109	1
1843	43590	134520.629703898501	2
1843	43598	134520.851345955621	1
1843	44610	137720	0
1843	44614	137720.3	2
1843	44619	137720.609728579705	2
1843	44626	137720.825823102853	1
1843	45678	140920.1	1
1843	45682	140920.4	2
1843	45688	140920.618492036809	1
1843	45692	140920.819831599905	1
1843	46679	144120.2	2
1843	46684	144120.509584242196	2
1843	46690	144120.723644433206	1
1843	46696	144120.947826956952	1
1843	47768	147320.2	2
1843	47772	147320.5	2
1843	47777	147320.808645597039	2
1843	47784	147321.022583472185	1
1843	48816	150520.2	2
1843	48819	150520.4	1
1843	48823	150520.607377549975	1
1843	48828	150520.815338549936	1
1843	49829	153720	0
1843	49833	153720.3	2
1843	49840	153720.513312379522	1
1843	49845	153720.820750195819	2
1843	50848	156920	0
1843	50852	156920.3	2
1843	50856	156920.501587642901	1
1843	50863	156920.718355903916	1
1843	51858	160120.2	2
1843	51862	160120.5	2
1843	51866	160120.707819440907	1
1843	51877	160121.055229684336	2
1843	52881	163320.2	2
1843	52885	163320.409647482326	1
1843	52891	163320.627187951629	1
1843	52895	163320.831006536921	1
1843	53900	166520.2	2
1843	53904	166520.5	2
1843	53908	166520.706286201407	1
1843	53913	166521.011463631691	2
1843	54968	169720.1	1
1843	54972	169720.4	2
1843	54976	169720.609294354091	1
1843	54984	169720.84455562365	1
1843	56000	172920.1	1
1843	56006	172920.412930552493	2
1843	56011	172920.719802530439	2
1843	56020	172920.947014105395	1
1843	57046	176120.2	2
1843	57050	176120.5	2
1843	57054	176120.707799399341	1
1843	57059	176120.923954651806	1
1843	58079	179320.1	1
1843	58082	179320.3	1
1843	58090	179320.529733151188	1
1843	58095	179320.744802254463	1
1843	59105	182520.1	1
1843	59109	182520.4	2
1843	59115	182520.707844006446	2
1843	59121	182521.024416844761	2
1843	60177	185720.1	1
1843	60180	185720.3	1
1843	60187	185720.522603872449	1
1843	60197	185720.741397227131	1
1843	61221	188920.1	1
1843	61224	188920.3	1
1843	61232	188920.527819970573	1
1843	61241	188920.763039833775	1
1843	62283	192120.1	1
1843	62287	192120.306426811625	1
1843	62292	192120.509986004939	1
1843	62296	192120.717221662183	1
1843	63309	195320.2	2
1843	63313	195320.5	2
1843	63317	195320.705302000907	1
1843	63324	195320.927245327593	1
1843	64349	198520.1	1
1843	64352	198520.3	1
1843	64360	198520.522011768215	1
1843	64364	198520.731320799295	1
1843	65386	201720	0
1843	65389	201720.2	1
1843	65393	201720.400227900552	1
1843	65397	201720.605066853043	1
1844	32	120.1	0.875
1844	35	120.3	0.875
1844	40	120.602868304888	0.75
1844	45	120.908979315096	0.75
1844	1067	3320.1	0.875
1844	1071	3320.4	0.75
1844	1077	3320.7113149101	0.75
1844	1081	3320.920251001894	0.875
1844	2066	6520.2	0.75
1844	2069	6520.4	0.875
1844	2074	6520.700923233078	0.75
1844	2079	6520.909620980046	0.875
1844	3090	9720.1	0.875
1844	3094	9720.4	0.75
1844	3102	9720.621322223765	0.875
1844	3108	9720.833547967347	0.875
1844	4133	12920.1	0.875
1844	4136	12920.3	0.875
1844	4141	12920.609658851672	0.75
1844	4145	12920.81055264139	0.875
1844	5178	16120.2	0.75
1844	5183	16120.505063394464	0.75
1844	5187	16120.708403654761	0.875
1844	5191	16120.911580069925	0.875
1844	6219	19320	1
1844	6223	19320.3	0.75
1844	6228	19320.514970089138	0.875
1844	6233	19320.726252426855	0.875
1844	7224	22520	1
1844	7227	22520.2	0.875
1844	7231	22520.402396227861	0.875
1844	7235	22520.608546409932	0.875
1844	8218	25720.2	0.75
1844	8223	25720.503839132327	0.75
1844	8230	25720.730458607586	0.875
1844	8237	25721.038854501789	0.75
1844	9277	28920.1	0.875
1844	9281	28920.4	0.75
1844	9292	28920.739168339418	0.75
1844	9297	28920.942811022865	0.875
1844	10329	32120	1
1844	10333	32120.209995330362	0.875
1844	10338	32120.511294761276	0.75
1844	10342	32120.715342275944	0.875
1844	11374	35320	1
1844	11378	35320.3	0.75
1844	11382	35320.502777722601	0.875
1844	11388	35320.810956332853	0.75
1844	12407	38520.1	0.875
1844	12412	38520.317058662445	0.875
1844	12416	38520.523339886761	0.875
1844	12421	38520.832053644256	0.75
1844	13442	41720.2	0.75
1844	13445	41720.4	0.875
1844	13449	41720.604729009352	0.875
1844	13454	41720.907030527309	0.75
1844	14472	44920.1	0.875
1844	14475	44920.3	0.875
1844	14481	44920.520547648443	0.875
1844	14486	44920.821113288642	0.75
1844	15537	48120.1	0.875
1844	15541	48120.4	0.75
1844	15545	48120.608085471563	0.875
1844	15550	48120.91267031926	0.75
1844	16551	51320	1
1844	16557	51320.313145186034	0.75
1844	16562	51320.618933831035	0.75
1844	16575	51320.961646731087	0.75
1844	17629	54520.1	0.875
1844	17633	54520.302956397375	0.875
1844	17637	54520.507596423337	0.875
1844	17644	54520.822012726321	0.75
1844	18677	57720.1	0.875
1844	18680	57720.3	0.875
1844	18684	57720.50929109418	0.875
1844	18695	57720.744252504935	0.875
1844	19663	60920.1	0.875
1844	19666	60920.3	0.875
1844	19670	60920.509034682065	0.875
1844	19679	60920.738683743898	0.875
1844	20689	64120	1
1844	20692	64120.2	0.875
1844	20696	64120.403934631356	0.875
1844	20700	64120.613309283637	0.875
1844	21749	67320.2	0.75
1844	21752	67320.4	0.875
1844	21756	67320.607085557491	0.875
1844	21761	67320.825492501569	0.875
1844	22803	70520.2	0.75
1844	22807	70520.5	0.75
1844	22812	70520.708792601718	0.875
1844	22819	70520.938657187102	0.875
1844	23851	73720.2	0.75
1844	23854	73720.4	0.875
1844	23859	73720.707470094815	0.75
1844	23867	73721.04060457981	0.75
1844	24875	76920.1	0.875
1844	24878	76920.3	0.875
1844	24883	76920.603446840918	0.75
1844	24890	76920.818206804094	0.875
1844	25910	80120.2	0.75
1844	25913	80120.4	0.875
1844	25917	80120.600316697026	0.875
1844	25923	80120.909797664335	0.75
1844	26934	83320.1	0.875
1844	26939	83320.318419624562	0.875
1844	26946	83320.637895162485	0.75
1844	26951	83320.846150731835	0.875
1844	27984	86520.1	0.875
1844	27987	86520.3	0.875
1844	27994	86520.614644997304	0.75
1844	27999	86520.917173803334	0.75
1844	29024	89720.2	0.75
1844	29028	89720.5	0.75
1844	29032	89720.702236144794	0.875
1844	29037	89721.009567659615	0.75
1844	30085	92920	1
1844	30089	92920.207657324739	0.875
1844	30093	92920.416586417006	0.875
1844	30099	92920.72428097014	0.75
1844	31150	96120.2	0.75
1844	31154	96120.5	0.75
1844	31159	96120.807327612061	0.75
1844	31163	96121.015101184444	0.875
1844	32140	99320	1
1844	32145	99320.213259442794	0.875
1844	32149	99320.417920864024	0.875
1844	32154	99320.62843385188	0.875
1844	33184	102520.2	0.75
1844	33188	102520.5	0.75
1844	33194	102520.809132340738	0.75
1844	33203	102521.046677398234	0.875
1844	34222	105720	1
1844	34226	105720.200831571582	0.875
1844	34230	105720.401045847811	0.875
1844	34234	105720.603182181258	0.875
1844	35252	108920.2	0.75
1844	35256	108920.409407025959	0.875
1844	35261	108920.719113681634	0.75
1844	35282	108920.998113248208	0.875
1844	36302	112120.2	0.75
1844	36306	112120.5	0.75
1844	36312	112120.806414921327	0.75
1844	36316	112121.010363565312	0.875
1844	37357	115320.2	0.75
1844	37361	115320.5	0.75
1844	37368	115320.817818347376	0.75
1844	37372	115321.025476141967	0.875
1844	38405	118520.1	0.875
1844	38408	118520.3	0.875
1844	38413	118520.605142886415	0.75
1844	38418	118520.909051516859	0.75
1844	39464	121720.1	0.875
1844	39467	121720.3	0.875
1844	39472	121720.511646116727	0.875
1844	39483	121720.849218074385	0.75
1844	40516	124920	1
1844	40519	124920.2	0.875
1844	40525	124920.410581959336	0.875
1844	40531	124920.721597852831	0.75
1844	41530	128120	1
1844	41534	128120.3	0.75
1844	41538	128120.50784605246	0.875
1844	41543	128120.810141404275	0.75
1844	42547	131320.1	0.875
1844	42550	131320.3	0.875
1844	42555	131320.605516031021	0.75
1844	42560	131320.812648295668	0.875
1844	43577	134520.1	0.875
1844	43582	134520.315106580109	0.875
1844	43590	134520.629703898501	0.75
1844	43598	134520.851345955621	0.875
1844	44610	137720	1
1844	44614	137720.3	0.75
1844	44619	137720.609728579705	0.75
1844	44626	137720.825823102853	0.875
1844	45678	140920.1	0.875
1844	45682	140920.4	0.75
1844	45688	140920.618492036809	0.875
1844	45692	140920.819831599905	0.875
1844	46679	144120.2	0.75
1844	46684	144120.509584242196	0.75
1844	46690	144120.723644433206	0.875
1844	46696	144120.947826956952	0.875
1844	47768	147320.2	0.75
1844	47772	147320.5	0.75
1844	47777	147320.808645597039	0.75
1844	47784	147321.022583472185	0.875
1844	48816	150520.2	0.75
1844	48819	150520.4	0.875
1844	48823	150520.607377549975	0.875
1844	48828	150520.815338549936	0.875
1844	49829	153720	1
1844	49833	153720.3	0.75
1844	49840	153720.513312379522	0.875
1844	49845	153720.820750195819	0.75
1844	50848	156920	1
1844	50852	156920.3	0.75
1844	50856	156920.501587642901	0.875
1844	50863	156920.718355903916	0.875
1844	51858	160120.2	0.75
1844	51862	160120.5	0.75
1844	51866	160120.707819440907	0.875
1844	51877	160121.055229684336	0.75
1844	52881	163320.2	0.75
1844	52885	163320.409647482326	0.875
1844	52891	163320.627187951629	0.875
1844	52895	163320.831006536921	0.875
1844	53900	166520.2	0.75
1844	53904	166520.5	0.75
1844	53908	166520.706286201407	0.875
1844	53913	166521.011463631691	0.75
1844	54968	169720.1	0.875
1844	54972	169720.4	0.75
1844	54976	169720.609294354091	0.875
1844	54984	169720.84455562365	0.875
1844	56000	172920.1	0.875
1844	56006	172920.412930552493	0.75
1844	56011	172920.719802530439	0.75
1844	56020	172920.947014105395	0.875
1844	57046	176120.2	0.75
1844	57050	176120.5	0.75
1844	57054	176120.707799399341	0.875
1844	57059	176120.923954651806	0.875
1844	58079	179320.1	0.875
1844	58082	179320.3	0.875
1844	58090	179320.529733151188	0.875
1844	58095	179320.744802254463	0.875
1844	59105	182520.1	0.875
1844	59109	182520.4	0.75
1844	59115	182520.707844006446	0.75
1844	59121	182521.024416844761	0.75
1844	60177	185720.1	0.875
1844	60180	185720.3	0.875
1844	60187	185720.522603872449	0.875
1844	60197	185720.741397227131	0.875
1844	61221	188920.1	0.875
1844	61224	188920.3	0.875
1844	61232	188920.527819970573	0.875
1844	61241	188920.763039833775	0.875
1844	62283	192120.1	0.875
1844	62287	192120.306426811625	0.875
1844	62292	192120.509986004939	0.875
1844	62296	192120.717221662183	0.875
1844	63309	195320.2	0.75
1844	63313	195320.5	0.75
1844	63317	195320.705302000907	0.875
1844	63324	195320.927245327593	0.875
1844	64349	198520.1	0.875
1844	64352	198520.3	0.875
1844	64360	198520.522011768215	0.875
1844	64364	198520.731320799295	0.875
1844	65386	201720	1
1844	65389	201720.2	0.875
1844	65393	201720.400227900552	0.875
1844	65397	201720.605066853043	0.875
1845	32	120.1	0.1
1845	35	120.3	0.2
1845	40	120.602868304888	0.3
1845	45	120.908979315096	0.3
1845	1067	3320.1	0.1
1845	1071	3320.4	0.3
1845	1077	3320.7113149101	0.3
1845	1081	3320.920251001894	0.2
1845	2066	6520.2	0.2
1845	2069	6520.4	0.2
1845	2074	6520.700923233078	0.3
1845	2079	6520.909620980046	0.2
1845	3090	9720.1	0.1
1845	3094	9720.4	0.3
1845	3102	9720.621322223765	0.2
1845	3108	9720.833547967347	0.2
1845	4133	12920.1	0.1
1845	4136	12920.3	0.2
1845	4141	12920.609658851672	0.3
1845	4145	12920.81055264139	0.2
1845	5178	16120.2	0.2
1845	5183	16120.505063394464	0.3
1845	5187	16120.708403654761	0.2
1845	5191	16120.911580069925	0.2
1845	6219	19320	0
1845	6223	19320.3	0.3
1845	6228	19320.514970089138	0.2
1845	6233	19320.726252426855	0.2
1845	7224	22520	0
1845	7227	22520.2	0.2
1845	7231	22520.402396227861	0.2
1845	7235	22520.608546409932	0.2
1845	8218	25720.2	0.2
1845	8223	25720.503839132327	0.3
1845	8230	25720.730458607586	0.2
1845	8237	25721.038854501789	0.3
1845	9277	28920.1	0.1
1845	9281	28920.4	0.3
1845	9292	28920.739168339418	0.3
1845	9297	28920.942811022865	0.2
1845	10329	32120	0
1845	10333	32120.209995330362	0.2
1845	10338	32120.511294761276	0.3
1845	10342	32120.715342275944	0.2
1845	11374	35320	0
1845	11378	35320.3	0.3
1845	11382	35320.502777722601	0.2
1845	11388	35320.810956332853	0.3
1845	12407	38520.1	0.1
1845	12412	38520.317058662445	0.2
1845	12416	38520.523339886761	0.2
1845	12421	38520.832053644256	0.3
1845	13442	41720.2	0.2
1845	13445	41720.4	0.2
1845	13449	41720.604729009352	0.2
1845	13454	41720.907030527309	0.3
1845	14472	44920.1	0.1
1845	14475	44920.3	0.2
1845	14481	44920.520547648443	0.2
1845	14486	44920.821113288642	0.3
1845	15537	48120.1	0.1
1845	15541	48120.4	0.3
1845	15545	48120.608085471563	0.2
1845	15550	48120.91267031926	0.3
1845	16551	51320	0
1845	16557	51320.313145186034	0.3
1845	16562	51320.618933831035	0.3
1845	16575	51320.961646731087	0.3
1845	17629	54520.1	0.1
1845	17633	54520.302956397375	0.2
1845	17637	54520.507596423337	0.2
1845	17644	54520.822012726321	0.3
1845	18677	57720.1	0.1
1845	18680	57720.3	0.2
1845	18684	57720.50929109418	0.2
1845	18695	57720.744252504935	0.2
1845	19663	60920.1	0.1
1845	19666	60920.3	0.2
1845	19670	60920.509034682065	0.2
1845	19679	60920.738683743898	0.2
1845	20689	64120	0
1845	20692	64120.2	0.2
1845	20696	64120.403934631356	0.2
1845	20700	64120.613309283637	0.2
1845	21749	67320.2	0.2
1845	21752	67320.4	0.2
1845	21756	67320.607085557491	0.2
1845	21761	67320.825492501569	0.2
1845	22803	70520.2	0.2
1845	22807	70520.5	0.3
1845	22812	70520.708792601718	0.2
1845	22819	70520.938657187102	0.2
1845	23851	73720.2	0.2
1845	23854	73720.4	0.2
1845	23859	73720.707470094815	0.3
1845	23867	73721.04060457981	0.3
1845	24875	76920.1	0.1
1845	24878	76920.3	0.2
1845	24883	76920.603446840918	0.3
1845	24890	76920.818206804094	0.2
1845	25910	80120.2	0.2
1845	25913	80120.4	0.2
1845	25917	80120.600316697026	0.2
1845	25923	80120.909797664335	0.3
1845	26934	83320.1	0.1
1845	26939	83320.318419624562	0.2
1845	26946	83320.637895162485	0.3
1845	26951	83320.846150731835	0.2
1845	27984	86520.1	0.1
1845	27987	86520.3	0.2
1845	27994	86520.614644997304	0.3
1845	27999	86520.917173803334	0.3
1845	29024	89720.2	0.2
1845	29028	89720.5	0.3
1845	29032	89720.702236144794	0.2
1845	29037	89721.009567659615	0.3
1845	30085	92920	0
1845	30089	92920.207657324739	0.2
1845	30093	92920.416586417006	0.2
1845	30099	92920.72428097014	0.3
1845	31150	96120.2	0.2
1845	31154	96120.5	0.3
1845	31159	96120.807327612061	0.3
1845	31163	96121.015101184444	0.2
1845	32140	99320	0
1845	32145	99320.213259442794	0.2
1845	32149	99320.417920864024	0.2
1845	32154	99320.62843385188	0.2
1845	33184	102520.2	0.2
1845	33188	102520.5	0.3
1845	33194	102520.809132340738	0.3
1845	33203	102521.046677398234	0.2
1845	34222	105720	0
1845	34226	105720.200831571582	0.2
1845	34230	105720.401045847811	0.2
1845	34234	105720.603182181258	0.2
1845	35252	108920.2	0.2
1845	35256	108920.409407025959	0.2
1845	35261	108920.719113681634	0.3
1845	35282	108920.998113248208	0.2
1845	36302	112120.2	0.2
1845	36306	112120.5	0.3
1845	36312	112120.806414921327	0.3
1845	36316	112121.010363565312	0.2
1845	37357	115320.2	0.2
1845	37361	115320.5	0.3
1845	37368	115320.817818347376	0.3
1845	37372	115321.025476141967	0.2
1845	38405	118520.1	0.1
1845	38408	118520.3	0.2
1845	38413	118520.605142886415	0.3
1845	38418	118520.909051516859	0.3
1845	39464	121720.1	0.1
1845	39467	121720.3	0.2
1845	39472	121720.511646116727	0.2
1845	39483	121720.849218074385	0.3
1845	40516	124920	0
1845	40519	124920.2	0.2
1845	40525	124920.410581959336	0.2
1845	40531	124920.721597852831	0.3
1845	41530	128120	0
1845	41534	128120.3	0.3
1845	41538	128120.50784605246	0.2
1845	41543	128120.810141404275	0.3
1845	42547	131320.1	0.1
1845	42550	131320.3	0.2
1845	42555	131320.605516031021	0.3
1845	42560	131320.812648295668	0.2
1845	43577	134520.1	0.1
1845	43582	134520.315106580109	0.2
1845	43590	134520.629703898501	0.3
1845	43598	134520.851345955621	0.2
1845	44610	137720	0
1845	44614	137720.3	0.3
1845	44619	137720.609728579705	0.3
1845	44626	137720.825823102853	0.2
1845	45678	140920.1	0.1
1845	45682	140920.4	0.3
1845	45688	140920.618492036809	0.2
1845	45692	140920.819831599905	0.2
1845	46679	144120.2	0.2
1845	46684	144120.509584242196	0.3
1845	46690	144120.723644433206	0.2
1845	46696	144120.947826956952	0.2
1845	47768	147320.2	0.2
1845	47772	147320.5	0.3
1845	47777	147320.808645597039	0.3
1845	47784	147321.022583472185	0.2
1845	48816	150520.2	0.2
1845	48819	150520.4	0.2
1845	48823	150520.607377549975	0.2
1845	48828	150520.815338549936	0.2
1845	49829	153720	0
1845	49833	153720.3	0.3
1845	49840	153720.513312379522	0.2
1845	49845	153720.820750195819	0.3
1845	50848	156920	0
1845	50852	156920.3	0.3
1845	50856	156920.501587642901	0.2
1845	50863	156920.718355903916	0.2
1845	51858	160120.2	0.2
1845	51862	160120.5	0.3
1845	51866	160120.707819440907	0.2
1845	51877	160121.055229684336	0.3
1845	52881	163320.2	0.2
1845	52885	163320.409647482326	0.2
1845	52891	163320.627187951629	0.2
1845	52895	163320.831006536921	0.2
1845	53900	166520.2	0.2
1845	53904	166520.5	0.3
1845	53908	166520.706286201407	0.2
1845	53913	166521.011463631691	0.3
1845	54968	169720.1	0.1
1845	54972	169720.4	0.3
1845	54976	169720.609294354091	0.2
1845	54984	169720.84455562365	0.2
1845	56000	172920.1	0.1
1845	56006	172920.412930552493	0.3
1845	56011	172920.719802530439	0.3
1845	56020	172920.947014105395	0.2
1845	57046	176120.2	0.2
1845	57050	176120.5	0.3
1845	57054	176120.707799399341	0.2
1845	57059	176120.923954651806	0.2
1845	58079	179320.1	0.1
1845	58082	179320.3	0.2
1845	58090	179320.529733151188	0.2
1845	58095	179320.744802254463	0.2
1845	59105	182520.1	0.1
1845	59109	182520.4	0.3
1845	59115	182520.707844006446	0.3
1845	59121	182521.024416844761	0.3
1845	60177	185720.1	0.1
1845	60180	185720.3	0.2
1845	60187	185720.522603872449	0.2
1845	60197	185720.741397227131	0.2
1845	61221	188920.1	0.1
1845	61224	188920.3	0.2
1845	61232	188920.527819970573	0.2
1845	61241	188920.763039833775	0.2
1845	62283	192120.1	0.1
1845	62287	192120.306426811625	0.2
1845	62292	192120.509986004939	0.2
1845	62296	192120.717221662183	0.2
1845	63309	195320.2	0.2
1845	63313	195320.5	0.3
1845	63317	195320.705302000907	0.2
1845	63324	195320.927245327593	0.2
1845	64349	198520.1	0.1
1845	64352	198520.3	0.2
1845	64360	198520.522011768215	0.2
1845	64364	198520.731320799295	0.2
1845	65386	201720	0
1845	65389	201720.2	0.2
1845	65393	201720.400227900552	0.2
1845	65397	201720.605066853043	0.2
1846	63	220.2	2
1846	67	220.5	2
1846	71	220.700647867738	1
1846	75	220.908730532856	1
1846	1099	3420.2	2
1846	1104	3420.503480439102	2
1846	1109	3420.812446000368	2
1846	1115	3421.030083967312	1
1846	2096	6620.1	1
1846	2099	6620.3	1
1846	2104	6620.60694483444	2
1846	2112	6620.827465080895	1
1846	3124	9820	0
1846	3130	9820.31983322181	2
1846	3134	9820.521044584011	1
1846	3140	9820.833941456738	2
1846	4161	13020	0
1846	4165	13020.200301238296	1
1846	4170	13020.413618773431	1
1846	4183	13020.758534858171	2
1846	5209	16220.2	2
1846	5212	16220.4	1
1846	5219	16220.613850468335	1
1846	5230	16220.951249278448	2
1846	6250	19420.1	1
1846	6255	19420.404052588306	2
1846	6261	19420.612722760069	1
1846	6268	19420.82382028768	1
1846	7253	22620.2	2
1846	7256	22620.4	1
1846	7261	22620.615243440644	1
1846	7268	22620.834150689304	1
1846	8255	25820.2	2
1846	8258	25820.4	1
1846	8267	25820.733605225715	2
1846	8278	25820.978603194571	1
1846	9314	29020.1	1
1846	9318	29020.302230795458	1
1846	9323	29020.606219620922	2
1846	9329	29020.832565865777	1
1846	10360	32220.2	2
1846	10365	32220.504427972014	2
1846	10369	32220.708924285936	1
1846	10382	32220.957026792265	1
1846	11404	35420	0
1846	11407	35420.2	1
1846	11411	35420.409312083746	1
1846	11422	35420.73467192366	2