version 2
run Stability-97-20130528-00:56:47-21385
attr configname Stability
attr datetime 20130528-00:56:47
attr experiment Stability
attr inifile omnetpp.ini
attr iterationvars $0=1e-3
attr iterationvars2 "$0=1e-3, $repetition=7"
attr measurement $0=1e-3
attr network Network
attr processid 21385
attr repetition 7
attr replication #7
attr resultdir results
attr runnumber 97
attr seedset 97

vector 9505  Network.churner  inGoingSizeSig:vector  ETV
vector 9418  Network.dyn_peer[3]  lookupHopsSig:vector  ETV
vector 9419  Network.dyn_peer[3]  lookupStabilitySig:vector  ETV
vector 9420  Network.dyn_peer[3]  lookupTimeSig:vector  ETV
vector 9463  Network.dyn_peer[18]  lookupHopsSig:vector  ETV
vector 9464  Network.dyn_peer[18]  lookupStabilitySig:vector  ETV
vector 9465  Network.dyn_peer[18]  lookupTimeSig:vector  ETV
vector 9466  Network.dyn_peer[19]  lookupHopsSig:vector  ETV
vector 9467  Network.dyn_peer[19]  lookupStabilitySig:vector  ETV
vector 9468  Network.dyn_peer[19]  lookupTimeSig:vector  ETV
vector 9409  Network.dyn_peer[0]  lookupHopsSig:vector  ETV
vector 9410  Network.dyn_peer[0]  lookupStabilitySig:vector  ETV
vector 9411  Network.dyn_peer[0]  lookupTimeSig:vector  ETV
vector 9412  Network.dyn_peer[1]  lookupHopsSig:vector  ETV
vector 9413  Network.dyn_peer[1]  lookupStabilitySig:vector  ETV
vector 9414  Network.dyn_peer[1]  lookupTimeSig:vector  ETV
vector 9424  Network.dyn_peer[5]  lookupHopsSig:vector  ETV
vector 9425  Network.dyn_peer[5]  lookupStabilitySig:vector  ETV
vector 9426  Network.dyn_peer[5]  lookupTimeSig:vector  ETV
vector 9436  Network.dyn_peer[9]  lookupHopsSig:vector  ETV
vector 9437  Network.dyn_peer[9]  lookupStabilitySig:vector  ETV
vector 9438  Network.dyn_peer[9]  lookupTimeSig:vector  ETV
vector 9439  Network.dyn_peer[10]  lookupHopsSig:vector  ETV
vector 9440  Network.dyn_peer[10]  lookupStabilitySig:vector  ETV
vector 9441  Network.dyn_peer[10]  lookupTimeSig:vector  ETV
vector 9448  Network.dyn_peer[13]  lookupHopsSig:vector  ETV
vector 9449  Network.dyn_peer[13]  lookupStabilitySig:vector  ETV
vector 9450  Network.dyn_peer[13]  lookupTimeSig:vector  ETV
vector 9457  Network.dyn_peer[16]  lookupHopsSig:vector  ETV
vector 9458  Network.dyn_peer[16]  lookupStabilitySig:vector  ETV
vector 9459  Network.dyn_peer[16]  lookupTimeSig:vector  ETV
vector 9472  Network.dyn_peer[21]  lookupHopsSig:vector  ETV
vector 9473  Network.dyn_peer[21]  lookupStabilitySig:vector  ETV
vector 9474  Network.dyn_peer[21]  lookupTimeSig:vector  ETV
vector 9499  Network.dyn_peer[30]  lookupHopsSig:vector  ETV
vector 9500  Network.dyn_peer[30]  lookupStabilitySig:vector  ETV
vector 9501  Network.dyn_peer[30]  lookupTimeSig:vector  ETV
vector 9502  Network.dyn_peer[31]  lookupHopsSig:vector  ETV
vector 9503  Network.dyn_peer[31]  lookupStabilitySig:vector  ETV
vector 9504  Network.dyn_peer[31]  lookupTimeSig:vector  ETV
vector 9415  Network.dyn_peer[2]  lookupHopsSig:vector  ETV
vector 9416  Network.dyn_peer[2]  lookupStabilitySig:vector  ETV
vector 9417  Network.dyn_peer[2]  lookupTimeSig:vector  ETV
vector 9427  Network.dyn_peer[6]  lookupHopsSig:vector  ETV
vector 9428  Network.dyn_peer[6]  lookupStabilitySig:vector  ETV
vector 9429  Network.dyn_peer[6]  lookupTimeSig:vector  ETV
vector 9442  Network.dyn_peer[11]  lookupHopsSig:vector  ETV
vector 9443  Network.dyn_peer[11]  lookupStabilitySig:vector  ETV
vector 9444  Network.dyn_peer[11]  lookupTimeSig:vector  ETV
vector 9451  Network.dyn_peer[14]  lookupHopsSig:vector  ETV
vector 9452  Network.dyn_peer[14]  lookupStabilitySig:vector  ETV
vector 9453  Network.dyn_peer[14]  lookupTimeSig:vector  ETV
vector 9460  Network.dyn_peer[17]  lookupHopsSig:vector  ETV
vector 9461  Network.dyn_peer[17]  lookupStabilitySig:vector  ETV
vector 9462  Network.dyn_peer[17]  lookupTimeSig:vector  ETV
vector 9487  Network.dyn_peer[26]  lookupHopsSig:vector  ETV
vector 9488  Network.dyn_peer[26]  lookupStabilitySig:vector  ETV
vector 9489  Network.dyn_peer[26]  lookupTimeSig:vector  ETV
vector 9496  Network.dyn_peer[29]  lookupHopsSig:vector  ETV
vector 9497  Network.dyn_peer[29]  lookupStabilitySig:vector  ETV
vector 9498  Network.dyn_peer[29]  lookupTimeSig:vector  ETV
vector 9430  Network.dyn_peer[7]  lookupHopsSig:vector  ETV
vector 9431  Network.dyn_peer[7]  lookupStabilitySig:vector  ETV
vector 9432  Network.dyn_peer[7]  lookupTimeSig:vector  ETV
vector 9445  Network.dyn_peer[12]  lookupHopsSig:vector  ETV
vector 9446  Network.dyn_peer[12]  lookupStabilitySig:vector  ETV
vector 9447  Network.dyn_peer[12]  lookupTimeSig:vector  ETV
vector 9469  Network.dyn_peer[20]  lookupHopsSig:vector  ETV
vector 9470  Network.dyn_peer[20]  lookupStabilitySig:vector  ETV
vector 9471  Network.dyn_peer[20]  lookupTimeSig:vector  ETV
vector 9433  Network.dyn_peer[8]  lookupHopsSig:vector  ETV
vector 9434  Network.dyn_peer[8]  lookupStabilitySig:vector  ETV
vector 9435  Network.dyn_peer[8]  lookupTimeSig:vector  ETV
vector 9454  Network.dyn_peer[15]  lookupHopsSig:vector  ETV
vector 9455  Network.dyn_peer[15]  lookupStabilitySig:vector  ETV
vector 9456  Network.dyn_peer[15]  lookupTimeSig:vector  ETV
vector 9475  Network.dyn_peer[22]  lookupHopsSig:vector  ETV
vector 9476  Network.dyn_peer[22]  lookupStabilitySig:vector  ETV
vector 9477  Network.dyn_peer[22]  lookupTimeSig:vector  ETV
vector 9484  Network.dyn_peer[25]  lookupHopsSig:vector  ETV
vector 9485  Network.dyn_peer[25]  lookupStabilitySig:vector  ETV
vector 9486  Network.dyn_peer[25]  lookupTimeSig:vector  ETV
vector 9490  Network.dyn_peer[27]  lookupHopsSig:vector  ETV
vector 9491  Network.dyn_peer[27]  lookupStabilitySig:vector  ETV
vector 9492  Network.dyn_peer[27]  lookupTimeSig:vector  ETV
vector 9421  Network.dyn_peer[4]  lookupHopsSig:vector  ETV
vector 9422  Network.dyn_peer[4]  lookupStabilitySig:vector  ETV
vector 9423  Network.dyn_peer[4]  lookupTimeSig:vector  ETV
vector 9478  Network.dyn_peer[23]  lookupHopsSig:vector  ETV
vector 9479  Network.dyn_peer[23]  lookupStabilitySig:vector  ETV
vector 9480  Network.dyn_peer[23]  lookupTimeSig:vector  ETV
vector 9493  Network.dyn_peer[28]  lookupHopsSig:vector  ETV
vector 9494  Network.dyn_peer[28]  lookupStabilitySig:vector  ETV
vector 9495  Network.dyn_peer[28]  lookupTimeSig:vector  ETV
vector 9481  Network.dyn_peer[24]  lookupHopsSig:vector  ETV
vector 9482  Network.dyn_peer[24]  lookupStabilitySig:vector  ETV
vector 9483  Network.dyn_peer[24]  lookupTimeSig:vector  ETV
9409	137	20.100001	1
9409	453	20.600001	4
9409	1476	21.70737054986	4
9409	1706	21.914279330589	1
9409	2034	22.21429889721	2
9409	2268	22.404391743626	18
9409	2312	22.418834750879	1
9409	2528	22.62649309102	1
9409	2534	22.627192643399	2
9409	2557	22.631305330765	0
9409	3503	23.531305330765	9
9409	4003	23.931497084585	3
9409	4390	24.24595334383	2
9409	5410	25.048360007233	7
9409	5448	25.126371942282	7
9409	5861	25.355563793077	3
9409	7517	26.662027061368	13
9409	7896	26.972153503154	2
9409	8266	27.2851956751	2
9409	8534	27.489777270667	2
9409	9386	28.189777270667	7
9409	9607	28.398059032929	1
9409	9625	28.399329224039	0
9409	9751	28.505852382754	3
9409	10292	28.906625293723	4
9409	11445	30.007923017767	11
9409	12021	30.510848617994	4
9409	12045	30.556754118268	4
9409	12847	31.265372587507	8
9409	13418	31.765372587507	5
9409	13593	31.969858875076	1
9409	14061	32.379494657005	4
9409	14303	32.579494657005	1
9409	14780	32.983421979312	3
9409	15423	33.591206935691	5
9409	15677	33.802540270569	1
9409	15720	33.823967729396	1
9409	16119	34.22610385281	4
9409	16494	34.62610385281	3
9409	17381	35.404581607413	6
9409	17747	35.713519978032	3
9409	18804	36.622921759166	10
9409	19042	36.822921759166	1
9409	19265	37.029728990941	1
9409	19514	37.242784502853	1
9409	20479	38.05208361378	8
9409	20874	38.45208361378	3
9409	21278	38.754907923841	2
9409	21645	39.060224223273	2
9409	21881	39.255146364603	7
9409	21904	39.263954056136	1
9409	22403	39.764948412451	5
9409	23037	40.364948412451	5
9409	23273	40.570036647041	1
9409	24221	41.270131985748	7
9409	24421	41.394312176008	1
9409	24693	41.594594078198	2
9409	25441	42.197885284748	5
9409	25897	42.577165435157	11
9409	25930	42.602117029445	3
9409	26390	43.010080474833	4
9409	26808	43.410080474833	3
9409	27035	43.611281555026	1
9409	27270	43.824118210871	1
9409	27904	44.432782064223	6
9409	28266	44.738617278021	2
9409	28799	45.138718278021	5
9409	29237	45.438718278021	2
9409	30206	46.141186998769	5
9409	30341	46.248294493003	9
9409	30865	46.651628471285	4
9409	31014	46.753798588064	1
9409	31496	47.153798588064	3
9409	32033	47.655747492826	4
9409	32337	47.86403087645	1
9409	34012	49.36853388743	16
9409	34228	49.56853388743	2
9409	34907	50.273150422472	6
9409	35356	50.681303647356	4
9409	35716	51.081303647356	3
9409	36063	51.382418770273	3
9409	36245	51.578674327148	3
9409	36848	52.084944735368	4
9409	37183	52.391921373005	2
9409	37217	52.405477148849	11
9409	37794	52.911962460505	5
9409	38127	53.211962460505	2
9409	38722	53.811382568269	3
9409	38743	53.822900226699	6
9409	39815	54.725763455773	9
9409	40280	55.225763455773	4
9409	40721	55.734589945251	4
9409	40799	55.836746885323	0
9409	41091	56.140966250799	2
9409	41360	56.441422883912	2
9409	41614	56.64750035917	2
9409	42191	57.14750035917	4
9409	43353	58.018407836634	5
9409	43534	58.157214500401	10
9409	43538	58.164468363011	8
9409	44502	58.964971651405	9
9409	44771	59.174477821136	1
9409	45127	59.483120787231	2
9409	45237	59.586718773178	1
9409	45536	59.886718773178	2
9409	45754	60.087423366086	1
9409	46107	60.322228270981	1
9409	46171	60.392396464572	2
9409	46760	60.893196583781	5
9409	47178	61.293196583781	3
9409	47795	61.803155029113	4
9409	48776	62.510931511552	7
9409	49269	62.912872611638	3
9409	50189	63.621497708442	6
9409	50826	64.121650926371	5
9409	51168	64.423185513349	2
9409	51573	64.724688899141	2
9409	51793	64.929924894244	1
9409	52443	65.430025894244	5
9409	52737	65.630025894244	1
9409	53180	66.033976616724	3
9409	53289	66.11818536234	3
9409	53732	66.526804005923	4
9409	53741	66.539458174358	4
9409	54075	66.848118409956	2
9409	54207	66.97910993965	2
9409	54328	67.08830832307	1
9409	55048	67.68830832307	5
9409	55267	67.843789864343	2
9409	55473	67.990611542363	2
9409	55488	67.996843660324	2
9409	56258	68.555697077649	6
9409	56955	69.155798077649	6
9409	57410	69.560918999774	1
9409	57617	69.760918999774	1
9409	57981	70.0638207171	3
9409	58171	70.248537607693	3
9409	58719	70.655449272882	4
9409	58763	70.669495114693	3
9409	58856	70.763603671974	6
9409	58919	70.772892960645	7
9409	59121	70.956935413371	2
9409	59521	71.269596114693	3
9409	59536	71.2732202305	5
9409	59546	71.277744832038	5
9409	60026	71.577845832038	3
9409	60398	71.877845832038	2
9409	60619	72.078251532482	1
9409	61372	72.785421836239	6
9409	61390	72.787748337191	0
9409	62488	73.687748337191	9
9409	63862	74.741077644035	9
9409	63905	74.793707307668	11
9409	64546	75.294635534751	6
9409	65786	76.394635534751	10
9409	66052	76.714528640168	2
9409	66655	77.324526531108	6
9409	67246	77.824526531108	5
9409	67779	78.225938943927	4
9409	68119	78.525938943927	2
9409	68796	79.165444005466	5
9409	69125	79.465444005466	2
9409	70111	80.467331539084	9
9409	70140	80.502280910198	9
9409	70686	80.969938115038	4
9409	70711	81.002452824317	4
9409	70960	81.275669114809	2
9409	70975	81.276175376339	0
9409	71515	81.776175376339	5
9409	72047	82.282513074259	4
9409	72671	82.786231391605	4
9409	72807	82.89311530718	1
9409	72848	82.924987361893	3
9409	72849	82.924987361893	3
9409	73426	83.325088361893	4
9409	73753	83.625088361893	2
9409	73985	83.829689956673	1
9409	75120	84.731001281663	11
9409	76595	85.931001281663	12
9409	77037	86.339320428247	3
9409	78818	87.843353755456	16
9409	79332	88.346435146176	4
9409	79349	88.35624043947	4
9409	79511	88.552933102583	1
9409	79620	88.656760990458	2
9409	80019	88.960616154608	3
9409	80519	89.360616154608	3
9409	80835	89.587531315438	1
9409	81962	90.785232215551	3
9409	82110	90.887427937265	1
9409	82633	91.387427937265	5
9409	83751	92.193368555498	8
9409	84142	92.594008992938	12
9409	84378	92.796222621071	5
9409	84733	93.107568512901	2
9409	85105	93.394743057915	9
9409	85141	93.402517194847	9
9409	85152	93.408515140714	2
9409	85587	93.712478553078	3
9409	85806	93.912478553078	1
9409	86536	94.517050373992	6
9409	86902	94.837034150216	5
9409	87242	95.131965550736	5
9409	87258	95.133370537701	0
9409	87802	95.633370537701	4
9409	88298	96.025707256063	3
9409	88859	96.425808256063	6
9409	90709	97.825808256063	16
9409	91648	98.73308494788	10
9409	91859	98.873463355063	8
9409	92131	99.082378032058	1
9409	92619	99.486538747864	4
9409	93060	99.886538747864	3
9409	93308	100.090116060607	2
9409	93695	100.399726879508	2
9409	93928	100.6101368331	1
9409	93930	100.610688228229	1
9409	94148	100.817367125947	1
9409	94151	100.818994401699	1
9409	94791	101.320471042547	5
9409	95254	101.720471042547	4
9409	95706	102.127166102822	3
9409	96333	102.702433850689	4
9409	96721	102.935772031473	9
9409	96938	103.108771925387	3
9409	97644	103.710496903746	5
9409	97845	103.906602765872	7
9409	98175	104.21527093762	3
9409	99294	105.201053697087	6
9409	100019	105.810654097566	7
9409	100861	106.61329719103	7
9409	101371	107.118044207517	6
9409	101598	107.318044207517	1
9409	101949	107.627915243696	2
9409	102104	107.763066727017	2
9409	102998	108.472918928826	7
9409	104295	109.672918928826	11
9409	104523	109.877077356827	1
9409	104928	110.279868962951	3
9409	104945	110.285950710083	0
9409	105211	110.585950710083	2
9409	105468	110.893809699838	2
9409	106565	111.946017152088	4
9409	106649	111.996752454035	13
9409	106687	112.036045104501	3
9409	107170	112.439467096754	4
9409	107628	112.839467096754	3
9409	107925	113.040287613835	1
9409	108019	113.096149660209	1
9409	108767	113.596250660209	5
9409	110324	115.096250660209	14
9409	110675	115.402395921756	2
9409	111609	116.309978196093	8
9409	111938	116.610079196093	3
9409	112475	117.110079196093	4
9409	113435	118.014315619873	8
9409	113640	118.222580482621	2
9409	113933	118.503550419018	3
9409	114003	118.542998852914	9
9409	114360	118.811571508105	3
9409	114398	118.84958333136	2
9409	114876	119.151124375535	3
9409	115262	119.451124375535	2
9409	116139	120.158117066761	8
9409	116394	120.358117066761	1
9409	117056	120.877275311608	4
9409	117313	121.084079818728	2
9409	118041	121.684079818728	6
9409	118776	122.284180818728	6
9409	119360	122.784180818728	4
9409	119850	123.188619055581	4
9409	120090	123.403108574855	1
9409	120241	123.535382050214	1
9409	121268	124.54297486972	10
9409	121907	125.14297486972	5
9409	122543	125.751019133712	5
9409	122670	125.857580878366	1
9409	123116	126.257580878366	3
9409	123327	126.467362259709	1
9409	124246	127.169380764936	8
9409	124437	127.326504740161	7
9409	124770	127.633756149986	4
9409	125053	127.878547724638	7
9409	125247	128.040688086633	3
9409	125367	128.129898063133	7
9409	126340	128.838602304197	7
9409	128583	130.593043944282	9
9409	128838	130.80804787768	1
9409	129669	131.513363958952	7
9409	130407	132.182042687271	3
9409	130613	132.387993475185	1
9409	131279	132.891216066854	5
9409	132024	133.491216066854	5
9409	132311	133.693199843952	1
9409	132465	133.852302779714	1
9409	132807	134.200758014862	5
9409	133145	134.504717580852	3
9409	133647	135.004717580852	4
9409	134714	135.776568451344	5
9409	136011	136.676568451344	10
9409	136860	137.378523670373	7
9409	136863	137.379141466856	7
9409	137334	137.885392047733	5
9409	137336	137.885776293115	5
9410	137	20.100001	0.875
9410	453	20.600001	0.5
9410	1476	21.70737054986	0.5
9410	1706	21.914279330589	0.875
9410	2034	22.21429889721	0.75
9410	2268	22.404391743626	-1.25
9410	2312	22.418834750879	0.875
9410	2528	22.62649309102	0.875
9410	2534	22.627192643399	0.75
9410	2557	22.631305330765	1
9410	3503	23.531305330765	-0.125
9410	4003	23.931497084585	0.625
9410	4390	24.24595334383	0.75
9410	5410	25.048360007233	0.125
9410	5448	25.126371942282	0.125
9410	5861	25.355563793077	0.625
9410	7517	26.662027061368	-0.625
9410	7896	26.972153503154	0.75
9410	8266	27.2851956751	0.75
9410	8534	27.489777270667	0.75
9410	9386	28.189777270667	0.125
9410	9607	28.398059032929	0.875
9410	9625	28.399329224039	1
9410	9751	28.505852382754	0.625
9410	10292	28.906625293723	0.5
9410	11445	30.007923017767	-0.375
9410	12021	30.510848617994	0.5
9410	12045	30.556754118268	0.5
9410	12847	31.265372587507	0
9410	13418	31.765372587507	0.375
9410	13593	31.969858875076	0.875
9410	14061	32.379494657005	0.5
9410	14303	32.579494657005	0.875
9410	14780	32.983421979312	0.625
9410	15423	33.591206935691	0.375
9410	15677	33.802540270569	0.875
9410	15720	33.823967729396	0.875
9410	16119	34.22610385281	0.5
9410	16494	34.62610385281	0.625
9410	17381	35.404581607413	0.25
9410	17747	35.713519978032	0.625
9410	18804	36.622921759166	-0.25
9410	19042	36.822921759166	0.875
9410	19265	37.029728990941	0.875
9410	19514	37.242784502853	0.875
9410	20479	38.05208361378	0
9410	20874	38.45208361378	0.625
9410	21278	38.754907923841	0.75
9410	21645	39.060224223273	0.75
9410	21881	39.255146364603	0.125
9410	21904	39.263954056136	0.875
9410	22403	39.764948412451	0.375
9410	23037	40.364948412451	0.375
9410	23273	40.570036647041	0.875
9410	24221	41.270131985748	0.125
9410	24421	41.394312176008	0.875
9410	24693	41.594594078198	0.75
9410	25441	42.197885284748	0.375
9410	25897	42.577165435157	-0.375
9410	25930	42.602117029445	0.625
9410	26390	43.010080474833	0.5
9410	26808	43.410080474833	0.625
9410	27035	43.611281555026	0.875
9410	27270	43.824118210871	0.875
9410	27904	44.432782064223	0.25
9410	28266	44.738617278021	0.75
9410	28799	45.138718278021	0.375
9410	29237	45.438718278021	0.75
9410	30206	46.141186998769	0.375
9410	30341	46.248294493003	-0.125
9410	30865	46.651628471285	0.5
9410	31014	46.753798588064	0.875
9410	31496	47.153798588064	0.625
9410	32033	47.655747492826	0.5
9410	32337	47.86403087645	0.875
9410	34012	49.36853388743	-1
9410	34228	49.56853388743	0.75
9410	34907	50.273150422472	0.25
9410	35356	50.681303647356	0.5
9410	35716	51.081303647356	0.625
9410	36063	51.382418770273	0.625
9410	36245	51.578674327148	0.625
9410	36848	52.084944735368	0.5
9410	37183	52.391921373005	0.75
9410	37217	52.405477148849	-0.375
9410	37794	52.911962460505	0.375
9410	38127	53.211962460505	0.75
9410	38722	53.811382568269	0.625
9410	38743	53.822900226699	0.25
9410	39815	54.725763455773	-0.125
9410	40280	55.225763455773	0.5
9410	40721	55.734589945251	0.5
9410	40799	55.836746885323	1
9410	41091	56.140966250799	0.75
9410	41360	56.441422883912	0.75
9410	41614	56.64750035917	0.75
9410	42191	57.14750035917	0.5
9410	43353	58.018407836634	0.375
9410	43534	58.157214500401	-0.25
9410	43538	58.164468363011	0
9410	44502	58.964971651405	-0.125
9410	44771	59.174477821136	0.875
9410	45127	59.483120787231	0.75
9410	45237	59.586718773178	0.875
9410	45536	59.886718773178	0.75
9410	45754	60.087423366086	0.875
9410	46107	60.322228270981	0.875
9410	46171	60.392396464572	0.75
9410	46760	60.893196583781	0.375
9410	47178	61.293196583781	0.625
9410	47795	61.803155029113	0.5
9410	48776	62.510931511552	0.125
9410	49269	62.912872611638	0.625
9410	50189	63.621497708442	0.25
9410	50826	64.121650926371	0.44444441795349
9410	51168	64.423185513349	0.75
9410	51573	64.724688899141	0.75
9410	51793	64.929924894244	0.875
9410	52443	65.430025894244	0.375
9410	52737	65.630025894244	0.875
9410	53180	66.033976616724	0.625
9410	53289	66.11818536234	0.625
9410	53732	66.526804005923	0.5
9410	53741	66.539458174358	0.5
9410	54075	66.848118409956	0.75
9410	54207	66.97910993965	0.75
9410	54328	67.08830832307	0.875
9410	55048	67.68830832307	0.375
9410	55267	67.843789864343	0.75
9410	55473	67.990611542363	0.75
9410	55488	67.996843660324	0.75
9410	56258	68.555697077649	0.25
9410	56955	69.155798077649	0.25
9410	57410	69.560918999774	0.875
9410	57617	69.760918999774	0.875
9410	57981	70.0638207171	0.625
9410	58171	70.248537607693	0.625
9410	58719	70.655449272882	0.5
9410	58763	70.669495114693	0.625
9410	58856	70.763603671974	0.25
9410	58919	70.772892960645	0.125
9410	59121	70.956935413371	0.75
9410	59521	71.269596114693	0.625
9410	59536	71.2732202305	0.375
9410	59546	71.277744832038	0.375
9410	60026	71.577845832038	0.625
9410	60398	71.877845832038	0.75
9410	60619	72.078251532482	0.875
9410	61372	72.785421836239	0.25
9410	61390	72.787748337191	1
9410	62488	73.687748337191	-0.125
9410	63862	74.741077644035	-0.125
9410	63905	74.793707307668	-0.375
9410	64546	75.294635534751	0.25
9410	65786	76.394635534751	-0.25
9410	66052	76.714528640168	0.75
9410	66655	77.324526531108	0.25
9410	67246	77.824526531108	0.375
9410	67779	78.225938943927	0.5
9410	68119	78.525938943927	0.75
9410	68796	79.165444005466	0.375
9410	69125	79.465444005466	0.75
9410	70111	80.467331539084	-0.125
9410	70140	80.502280910198	-0.125
9410	70686	80.969938115038	0.5
9410	70711	81.002452824317	0.5
9410	70960	81.275669114809	0.75
9410	70975	81.276175376339	1
9410	71515	81.776175376339	0.375
9410	72047	82.282513074259	0.5
9410	72671	82.786231391605	0.5
9410	72807	82.89311530718	0.875
9410	72848	82.924987361893	0.625
9410	72849	82.924987361893	0.625
9410	73426	83.325088361893	0.5
9410	73753	83.625088361893	0.75
9410	73985	83.829689956673	0.875
9410	75120	84.731001281663	-0.375
9410	76595	85.931001281663	-0.5
9410	77037	86.339320428247	0.625
9410	78818	87.843353755456	-1
9410	79332	88.346435146176	0.5
9410	79349	88.35624043947	0.5
9410	79511	88.552933102583	0.875
9410	79620	88.656760990458	0.75
9410	80019	88.960616154608	0.625
9410	80519	89.360616154608	0.625
9410	80835	89.587531315438	0.875
9410	81962	90.785232215551	0.625
9410	82110	90.887427937265	0.875
9410	82633	91.387427937265	0.375
9410	83751	92.193368555498	0
9410	84142	92.594008992938	-0.5
9410	84378	92.796222621071	0.375
9410	84733	93.107568512901	0.75
9410	85105	93.394743057915	-0.125
9410	85141	93.402517194847	-0.125
9410	85152	93.408515140714	0.75
9410	85587	93.712478553078	0.625
9410	85806	93.912478553078	0.875
9410	86536	94.517050373992	0.25
9410	86902	94.837034150216	0.375
9410	87242	95.131965550736	0.375
9410	87258	95.133370537701	1
9410	87802	95.633370537701	0.5
9410	88298	96.025707256063	0.625
9410	88859	96.425808256063	0.25
9410	90709	97.825808256063	-1
9410	91648	98.73308494788	-0.25
9410	91859	98.873463355063	0
9410	92131	99.082378032058	0.875
9410	92619	99.486538747864	0.5
9410	93060	99.886538747864	0.625
9410	93308	100.090116060607	0.75
9410	93695	100.399726879508	0.75
9410	93928	100.6101368331	0.875
9410	93930	100.610688228229	0.875
9410	94148	100.817367125947	0.875
9410	94151	100.818994401699	0.875
9410	94791	101.320471042547	0.375
9410	95254	101.720471042547	0.5
9410	95706	102.127166102822	0.625
9410	96333	102.702433850689	0.5
9410	96721	102.935772031473	-0.125
9410	96938	103.108771925387	0.625
9410	97644	103.710496903746	0.375
9410	97845	103.906602765872	0.125
9410	98175	104.21527093762	0.625
9410	99294	105.201053697087	0.25
9410	100019	105.810654097566	0.125
9410	100861	106.61329719103	0.125
9410	101371	107.118044207517	0.25
9410	101598	107.318044207517	0.875
9410	101949	107.627915243696	0.75
9410	102104	107.763066727017	0.75
9410	102998	108.472918928826	0.125
9410	104295	109.672918928826	-0.375
9410	104523	109.877077356827	0.875
9410	104928	110.279868962951	0.625
9410	104945	110.285950710083	1
9410	105211	110.585950710083	0.75
9410	105468	110.893809699838	0.75
9410	106565	111.946017152088	0.5
9410	106649	111.996752454035	-0.625
9410	106687	112.036045104501	0.625
9410	107170	112.439467096754	0.5
9410	107628	112.839467096754	0.625
9410	107925	113.040287613835	0.875
9410	108019	113.096149660209	0.875
9410	108767	113.596250660209	0.375
9410	110324	115.096250660209	-0.75
9410	110675	115.402395921756	0.75
9410	111609	116.309978196093	0
9410	111938	116.610079196093	0.625
9410	112475	117.110079196093	0.5
9410	113435	118.014315619873	0
9410	113640	118.222580482621	0.75
9410	113933	118.503550419018	0.625
9410	114003	118.542998852914	-0.125
9410	114360	118.811571508105	0.625
9410	114398	118.84958333136	0.75
9410	114876	119.151124375535	0.625
9410	115262	119.451124375535	0.75
9410	116139	120.158117066761	0
9410	116394	120.358117066761	0.875
9410	117056	120.877275311608	0.5
9410	117313	121.084079818728	0.75
9410	118041	121.684079818728	0.25
9410	118776	122.284180818728	0.25
9410	119360	122.784180818728	0.5
9410	119850	123.188619055581	0.5
9410	120090	123.403108574855	0.875
9410	120241	123.535382050214	0.875
9410	121268	124.54297486972	-0.25
9410	121907	125.14297486972	0.375
9410	122543	125.751019133712	0.375
9410	122670	125.857580878366	0.875
9410	123116	126.257580878366	0.625
9410	123327	126.467362259709	0.875
9410	124246	127.169380764936	0
9410	124437	127.326504740161	0.125
9410	124770	127.633756149986	0.5
9410	125053	127.878547724638	0.125
9410	125247	128.040688086633	0.625
9410	125367	128.129898063133	0.125
9410	126340	128.838602304197	0.125
9410	128583	130.593043944282	-0.125
9410	128838	130.80804787768	0.875
9410	129669	131.513363958952	0.125
9410	130407	132.182042687271	0.625
9410	130613	132.387993475185	0.875
9410	131279	132.891216066854	0.375
9410	132024	133.491216066854	0.375
9410	132311	133.693199843952	0.875
9410	132465	133.852302779714	0.875
9410	132807	134.200758014862	0.375
9410	133145	134.504717580852	0.625
9410	133647	135.004717580852	0.5
9410	134714	135.776568451344	0.375
9410	136011	136.676568451344	-0.25
9410	136860	137.378523670373	0.125
9410	136863	137.379141466856	0.125
9410	137334	137.885392047733	0.375
9410	137336	137.885776293115	0.375
9411	137	20.100001	0.1
9411	453	20.600001	0.5
9411	1476	21.70737054986	0.5
9411	1706	21.914279330589	0.2
9411	2034	22.21429889721	0.3
9411	2268	22.404391743626	1.8
9411	2312	22.418834750879	0.2
9411	2528	22.62649309102	0.2
9411	2534	22.627192643399	0.3
9411	2557	22.631305330765	0
9411	3503	23.531305330765	0.9
9411	4003	23.931497084585	0.4
9411	4390	24.24595334383	0.3
9411	5410	25.048360007233	0.8
9411	5448	25.126371942282	0.8
9411	5861	25.355563793077	0.3
9411	7517	26.662027061368	1.3
9411	7896	26.972153503154	0.3
9411	8266	27.2851956751	0.3
9411	8534	27.489777270667	0.2
9411	9386	28.189777270667	0.7
9411	9607	28.398059032929	0.2
9411	9625	28.399329224039	0.1
9411	9751	28.505852382754	0.3
9411	10292	28.906625293723	0.4
9411	11445	30.007923017767	1.1
9411	12021	30.510848617994	0.5
9411	12045	30.556754118268	0.5
9411	12847	31.265372587507	0.7
9411	13418	31.765372587507	0.5
9411	13593	31.969858875076	0.2
9411	14061	32.379494657005	0.4
9411	14303	32.579494657005	0.2
9411	14780	32.983421979312	0.4
9411	15423	33.591206935691	0.6
9411	15677	33.802540270569	0.2
9411	15720	33.823967729396	0.2
9411	16119	34.22610385281	0.4
9411	16494	34.62610385281	0.4
9411	17381	35.404581607413	0.6
9411	17747	35.713519978032	0.3
9411	18804	36.622921759166	0.9
9411	19042	36.822921759166	0.2
9411	19265	37.029728990941	0.2
9411	19514	37.242784502853	0.2
9411	20479	38.05208361378	0.8
9411	20874	38.45208361378	0.4
9411	21278	38.754907923841	0.3
9411	21645	39.060224223273	0.3
9411	21881	39.255146364603	0.7
9411	21904	39.263954056136	0.2
9411	22403	39.764948412451	0.5
9411	23037	40.364948412451	0.6
9411	23273	40.570036647041	0.2
9411	24221	41.270131985748	0.7
9411	24421	41.394312176008	0.2
9411	24693	41.594594078198	0.2
9411	25441	42.197885284748	0.6
9411	25897	42.577165435157	1.2
9411	25930	42.602117029445	0.4
9411	26390	43.010080474833	0.4
9411	26808	43.410080474833	0.4
9411	27035	43.611281555026	0.2
9411	27270	43.824118210871	0.2
9411	27904	44.432782064223	0.6
9411	28266	44.738617278021	0.3
9411	28799	45.138718278021	0.4
9411	29237	45.438718278021	0.3
9411	30206	46.141186998769	0.5
9411	30341	46.248294493003	0.8
9411	30865	46.651628471285	0.5
9411	31014	46.753798588064	0.1
9411	31496	47.153798588064	0.4
9411	32033	47.655747492826	0.5
9411	32337	47.86403087645	0.2
9411	34012	49.36853388743	1.5
9411	34228	49.56853388743	0.2
9411	34907	50.273150422472	0.7
9411	35356	50.681303647356	0.4
9411	35716	51.081303647356	0.4
9411	36063	51.382418770273	0.3
9411	36245	51.578674327148	0.4
9411	36848	52.084944735368	0.5
9411	37183	52.391921373005	0.3
9411	37217	52.405477148849	1
9411	37794	52.911962460505	0.5
9411	38127	53.211962460505	0.3
9411	38722	53.811382568269	0.4
9411	38743	53.822900226699	0.6
9411	39815	54.725763455773	0.9
9411	40280	55.225763455773	0.5
9411	40721	55.734589945251	0.5
9411	40799	55.836746885323	0.1
9411	41091	56.140966250799	0.3
9411	41360	56.441422883912	0.3
9411	41614	56.64750035917	0.2
9411	42191	57.14750035917	0.5
9411	43353	58.018407836634	0.6
9411	43534	58.157214500401	1
9411	43538	58.164468363011	0.9
9411	44502	58.964971651405	0.8
9411	44771	59.174477821136	0.2
9411	45127	59.483120787231	0.3
9411	45237	59.586718773178	0.1
9411	45536	59.886718773178	0.3
9411	45754	60.087423366086	0.2
9411	46107	60.322228270981	0.2
9411	46171	60.392396464572	0.3
9411	46760	60.893196583781	0.5
9411	47178	61.293196583781	0.4
9411	47795	61.803155029113	0.5
9411	48776	62.510931511552	0.7
9411	49269	62.912872611638	0.4
9411	50189	63.621497708442	0.7
9411	50826	64.121650926371	0.5
9411	51168	64.423185513349	0.3
9411	51573	64.724688899141	0.3
9411	51793	64.929924894244	0.2
9411	52443	65.430025894244	0.5
9411	52737	65.630025894244	0.2
9411	53180	66.033976616724	0.4
9411	53289	66.11818536234	0.4
9411	53732	66.526804005923	0.4
9411	53741	66.539458174358	0.5
9411	54075	66.848118409956	0.3
9411	54207	66.97910993965	0.3
9411	54328	67.08830832307	0.1
9411	55048	67.68830832307	0.6
9411	55267	67.843789864343	0.3
9411	55473	67.990611542363	0.3
9411	55488	67.996843660324	0.3
9411	56258	68.555697077649	0.7
9411	56955	69.155798077649	0.6
9411	57410	69.560918999774	0.1
9411	57617	69.760918999774	0.2
9411	57981	70.0638207171	0.3
9411	58171	70.248537607693	0.4
9411	58719	70.655449272882	0.4
9411	58763	70.669495114693	0.4
9411	58856	70.763603671974	0.5
9411	58919	70.772892960645	0.7
9411	59121	70.956935413371	0.3
9411	59521	71.269596114693	0.4
9411	59536	71.2732202305	0.5
9411	59546	71.277744832038	0.5
9411	60026	71.577845832038	0.3
9411	60398	71.877845832038	0.3
9411	60619	72.078251532482	0.2
9411	61372	72.785421836239	0.7
9411	61390	72.787748337191	0
9411	62488	73.687748337191	0.9
9411	63862	74.741077644035	1
9411	63905	74.793707307668	1.1