version 2
run Stability-69-20130528-00:54:40-21385
attr configname Stability
attr datetime 20130528-00:54:40
attr experiment Stability
attr inifile omnetpp.ini
attr iterationvars $0=1e0
attr iterationvars2 "$0=1e0, $repetition=9"
attr measurement $0=1e0
attr network Network
attr processid 21385
attr repetition 9
attr replication #9
attr resultdir results
attr runnumber 69
attr seedset 69

vector 6789  Network.churner  inGoingSizeSig:vector  ETV
vector 6705  Network.dyn_peer[4]  lookupHopsSig:vector  ETV
vector 6706  Network.dyn_peer[4]  lookupStabilitySig:vector  ETV
vector 6707  Network.dyn_peer[4]  lookupTimeSig:vector  ETV
vector 6765  Network.dyn_peer[24]  lookupHopsSig:vector  ETV
vector 6766  Network.dyn_peer[24]  lookupStabilitySig:vector  ETV
vector 6767  Network.dyn_peer[24]  lookupTimeSig:vector  ETV
vector 6774  Network.dyn_peer[27]  lookupHopsSig:vector  ETV
vector 6775  Network.dyn_peer[27]  lookupStabilitySig:vector  ETV
vector 6776  Network.dyn_peer[27]  lookupTimeSig:vector  ETV
vector 6783  Network.dyn_peer[30]  lookupHopsSig:vector  ETV
vector 6784  Network.dyn_peer[30]  lookupStabilitySig:vector  ETV
vector 6785  Network.dyn_peer[30]  lookupTimeSig:vector  ETV
vector 6693  Network.dyn_peer[0]  lookupHopsSig:vector  ETV
vector 6694  Network.dyn_peer[0]  lookupStabilitySig:vector  ETV
vector 6695  Network.dyn_peer[0]  lookupTimeSig:vector  ETV
vector 6696  Network.dyn_peer[1]  lookupHopsSig:vector  ETV
vector 6697  Network.dyn_peer[1]  lookupStabilitySig:vector  ETV
vector 6698  Network.dyn_peer[1]  lookupTimeSig:vector  ETV
vector 6699  Network.dyn_peer[2]  lookupHopsSig:vector  ETV
vector 6700  Network.dyn_peer[2]  lookupStabilitySig:vector  ETV
vector 6701  Network.dyn_peer[2]  lookupTimeSig:vector  ETV
vector 6717  Network.dyn_peer[8]  lookupHopsSig:vector  ETV
vector 6718  Network.dyn_peer[8]  lookupStabilitySig:vector  ETV
vector 6719  Network.dyn_peer[8]  lookupTimeSig:vector  ETV
vector 6732  Network.dyn_peer[13]  lookupHopsSig:vector  ETV
vector 6733  Network.dyn_peer[13]  lookupStabilitySig:vector  ETV
vector 6734  Network.dyn_peer[13]  lookupTimeSig:vector  ETV
vector 6735  Network.dyn_peer[14]  lookupHopsSig:vector  ETV
vector 6736  Network.dyn_peer[14]  lookupStabilitySig:vector  ETV
vector 6737  Network.dyn_peer[14]  lookupTimeSig:vector  ETV
vector 6738  Network.dyn_peer[15]  lookupHopsSig:vector  ETV
vector 6739  Network.dyn_peer[15]  lookupStabilitySig:vector  ETV
vector 6740  Network.dyn_peer[15]  lookupTimeSig:vector  ETV
vector 6768  Network.dyn_peer[25]  lookupHopsSig:vector  ETV
vector 6769  Network.dyn_peer[25]  lookupStabilitySig:vector  ETV
vector 6770  Network.dyn_peer[25]  lookupTimeSig:vector  ETV
vector 6786  Network.dyn_peer[31]  lookupHopsSig:vector  ETV
vector 6787  Network.dyn_peer[31]  lookupStabilitySig:vector  ETV
vector 6788  Network.dyn_peer[31]  lookupTimeSig:vector  ETV
vector 6702  Network.dyn_peer[3]  lookupHopsSig:vector  ETV
vector 6703  Network.dyn_peer[3]  lookupStabilitySig:vector  ETV
vector 6704  Network.dyn_peer[3]  lookupTimeSig:vector  ETV
vector 6720  Network.dyn_peer[9]  lookupHopsSig:vector  ETV
vector 6721  Network.dyn_peer[9]  lookupStabilitySig:vector  ETV
vector 6722  Network.dyn_peer[9]  lookupTimeSig:vector  ETV
vector 6723  Network.dyn_peer[10]  lookupHopsSig:vector  ETV
vector 6724  Network.dyn_peer[10]  lookupStabilitySig:vector  ETV
vector 6725  Network.dyn_peer[10]  lookupTimeSig:vector  ETV
vector 6726  Network.dyn_peer[11]  lookupHopsSig:vector  ETV
vector 6727  Network.dyn_peer[11]  lookupStabilitySig:vector  ETV
vector 6728  Network.dyn_peer[11]  lookupTimeSig:vector  ETV
vector 6729  Network.dyn_peer[12]  lookupHopsSig:vector  ETV
vector 6730  Network.dyn_peer[12]  lookupStabilitySig:vector  ETV
vector 6731  Network.dyn_peer[12]  lookupTimeSig:vector  ETV
vector 6747  Network.dyn_peer[18]  lookupHopsSig:vector  ETV
vector 6748  Network.dyn_peer[18]  lookupStabilitySig:vector  ETV
vector 6749  Network.dyn_peer[18]  lookupTimeSig:vector  ETV
vector 6762  Network.dyn_peer[23]  lookupHopsSig:vector  ETV
vector 6763  Network.dyn_peer[23]  lookupStabilitySig:vector  ETV
vector 6764  Network.dyn_peer[23]  lookupTimeSig:vector  ETV
vector 6777  Network.dyn_peer[28]  lookupHopsSig:vector  ETV
vector 6778  Network.dyn_peer[28]  lookupStabilitySig:vector  ETV
vector 6779  Network.dyn_peer[28]  lookupTimeSig:vector  ETV
vector 6780  Network.dyn_peer[29]  lookupHopsSig:vector  ETV
vector 6781  Network.dyn_peer[29]  lookupStabilitySig:vector  ETV
vector 6782  Network.dyn_peer[29]  lookupTimeSig:vector  ETV
vector 6714  Network.dyn_peer[7]  lookupHopsSig:vector  ETV
vector 6715  Network.dyn_peer[7]  lookupStabilitySig:vector  ETV
vector 6716  Network.dyn_peer[7]  lookupTimeSig:vector  ETV
vector 6741  Network.dyn_peer[16]  lookupHopsSig:vector  ETV
vector 6742  Network.dyn_peer[16]  lookupStabilitySig:vector  ETV
vector 6743  Network.dyn_peer[16]  lookupTimeSig:vector  ETV
vector 6744  Network.dyn_peer[17]  lookupHopsSig:vector  ETV
vector 6745  Network.dyn_peer[17]  lookupStabilitySig:vector  ETV
vector 6746  Network.dyn_peer[17]  lookupTimeSig:vector  ETV
vector 6771  Network.dyn_peer[26]  lookupHopsSig:vector  ETV
vector 6772  Network.dyn_peer[26]  lookupStabilitySig:vector  ETV
vector 6773  Network.dyn_peer[26]  lookupTimeSig:vector  ETV
vector 6708  Network.dyn_peer[5]  lookupHopsSig:vector  ETV
vector 6709  Network.dyn_peer[5]  lookupStabilitySig:vector  ETV
vector 6710  Network.dyn_peer[5]  lookupTimeSig:vector  ETV
vector 6750  Network.dyn_peer[19]  lookupHopsSig:vector  ETV
vector 6751  Network.dyn_peer[19]  lookupStabilitySig:vector  ETV
vector 6752  Network.dyn_peer[19]  lookupTimeSig:vector  ETV
vector 6756  Network.dyn_peer[21]  lookupHopsSig:vector  ETV
vector 6757  Network.dyn_peer[21]  lookupStabilitySig:vector  ETV
vector 6758  Network.dyn_peer[21]  lookupTimeSig:vector  ETV
vector 6759  Network.dyn_peer[22]  lookupHopsSig:vector  ETV
vector 6760  Network.dyn_peer[22]  lookupStabilitySig:vector  ETV
vector 6761  Network.dyn_peer[22]  lookupTimeSig:vector  ETV
vector 6711  Network.dyn_peer[6]  lookupHopsSig:vector  ETV
vector 6712  Network.dyn_peer[6]  lookupStabilitySig:vector  ETV
vector 6713  Network.dyn_peer[6]  lookupTimeSig:vector  ETV
vector 6753  Network.dyn_peer[20]  lookupHopsSig:vector  ETV
vector 6754  Network.dyn_peer[20]  lookupStabilitySig:vector  ETV
vector 6755  Network.dyn_peer[20]  lookupTimeSig:vector  ETV
6693	141	20.101	1
6693	292	20.306697201881	1
6693	419	20.520800571859	1
6693	716	20.927316315859	3
6693	1382	21.633126500752	6
6693	1669	21.838592946113	1
6693	1674	21.838912210657	1
6693	2019	22.140012210657	3
6693	2334	22.440012210657	2
6693	2695	22.748988464337	2
6693	2923	22.953993470421	2
6693	3298	23.261765232583	2
6693	3613	23.538282702456	2
6693	3663	23.546627501716	8
6693	3808	23.652086170096	1
6693	4846	24.552086170096	8
6693	5271	24.953702164943	4
6693	5281	24.954842999217	3
6693	5497	25.157814469118	1
6693	5512	25.161702256112	1
6693	5801	25.468487382298	2
6693	5804	25.469244720897	2
6693	6438	26.070344720897	6
6693	6974	26.470344720897	4
6693	7996	27.371444720897	9
6693	8788	28.000126564776	3
6693	9320	28.403592227872	3
6693	9524	28.571444720897	11
6693	10758	29.577294481303	10
6693	11214	29.977294481303	3
6693	11577	30.317077384292	2
6693	11916	30.584701042035	6
6693	12058	30.720997093451	3
6693	12341	30.989410904135	3
6693	12670	31.225451763994	4
6693	13113	31.593808391381	5
6693	13166	31.631647188572	3
6693	13272	31.729377797985	9
6693	13796	32.131156761778	4
6693	14584	32.731156761778	6
6693	14841	32.932394399411	1
6693	15105	33.140915179925	1
6693	15322	33.344119009789	1
6693	15740	33.746944353475	4
6693	16581	34.446944353475	6
6693	16810	34.649407099745	1
6693	16939	34.759117327286	1
6693	17451	35.159117327286	3
6693	18801	36.563087567908	13
6693	18905	36.645842493242	13
6693	19693	37.280073181165	7
6693	20183	37.686370902568	5
6693	20955	38.286370902568	5
6693	21217	38.49088620354	1
6693	22471	39.590193928897	5
6693	22827	39.899730131668	3
6693	22927	40.000455533233	15
6693	24244	41.011052898791	12
6693	24950	41.611052898791	5
6693	25623	42.101952494975	6
6693	25841	42.224651316121	5
6693	26256	42.527210704099	3
6693	27057	43.127210704099	5
6693	28000	43.929019351055	7
6693	28418	44.246253340755	6
6693	28499	44.332588486576	4
6693	28759	44.533688486576	2
6693	29233	44.933688486576	4
6693	30583	45.97392563931	6
6693	31852	46.93923259916	2
6693	32114	47.1762792605	12
6693	32408	47.477831067041	2
6693	33973	48.777831067041	14
6693	34638	49.377972487184	6
6693	35087	49.79542256782	3
6693	35413	50.099386407385	2
6693	35418	50.101215730138	6
6693	36161	50.702315730138	9
6693	36437	50.902315730138	1
6693	37516	51.806296670748	8
6693	38136	52.324043556606	3
6693	38363	52.555108994952	14
6693	38437	52.614043552832	9
6693	38655	52.818771533944	2
6693	38905	53.018771533944	1
6693	39610	53.634546844189	6
6693	39745	53.749175027161	0
6693	39830	53.811183885017	0
6693	40021	53.966732780133	1
6693	40809	54.621683703131	7
6693	41193	54.922783703131	4
6693	41698	55.335978517005	3
6693	43026	56.742642079003	14
6693	44443	57.850584074274	14
6693	46293	59.450584074274	16
6693	47790	60.656397575707	12
6693	48605	61.357287327823	8
6693	48867	61.559943451717	1
6693	49083	61.761879162228	1
6693	49752	62.264706789506	5
6693	50097	62.564706789506	2
6693	50235	62.673007773477	2
6693	51700	63.88208199092	13
6693	52172	64.28208199092	3
6693	52679	64.703732791079	3
6693	52754	64.782810839303	5
6693	53324	65.292102063425	6
6693	54418	66.297852161527	10
6693	55066	66.798952161527	5
6693	55410	67.098952161527	2
6693	56406	67.963998312553	4
6693	56818	68.399977957456	5
6693	57005	68.534476981459	9
6693	57278	68.772053992196	8
6693	57387	68.861370236573	7
6693	57920	69.368863562092	5
6693	58550	69.968863562092	5
6693	58897	70.277204033029	2
6693	59303	70.578304033029	3
6693	60018	71.178304033029	5
6693	60151	71.283434939337	1
6693	60570	71.683434939337	3
6693	61025	72.086083880987	3
6693	61794	72.790755033863	8
6693	62451	73.298558406241	5
6693	62959	73.701717817241	3
6693	63205	73.904827835268	1
6693	63471	74.111781814902	3
6693	64964	75.311781814902	12
6693	65335	75.613695885751	2
6693	65666	75.922279528948	8
6693	65797	76.017930297178	3
6693	66443	76.525621593387	5
6693	67831	77.525621593387	9
6693	68268	77.834477172246	2
6693	68980	78.380683225371	5
6693	69302	78.643040376595	8
6693	69485	78.818379852999	9
6693	70761	79.821982055609	11
6693	71070	80.121982055609	2
6693	71701	80.725401806973	5
6693	72153	81.056602634695	2
6693	72704	81.464650349274	5
6693	73696	82.215069151527	5
6693	74036	82.520886226873	2
6693	74287	82.727718466118	1
6693	75306	83.528818466118	9
6693	76527	84.628818466118	10
6693	76843	84.930693700548	2
6693	77291	85.243483433937	3
6693	77546	85.43469099624	4
6693	78958	86.642465958935	13
6693	79278	86.942465958935	2
6693	79711	87.263792668529	2
6693	79808	87.348815373971	4
6693	80219	87.674860555866	2
6693	81084	88.374860555866	6
6693	81689	88.881109570768	4
6693	82154	89.289422941194	3
6693	82468	89.590279122009	2
6693	82579	89.690307605655	1
6693	82838	89.936682390008	2
6693	83783	90.637782390008	7
6693	84895	91.537782390008	9
6693	85346	91.857424103373	2
6693	85378	91.874302756522	2
6693	85408	91.888029034637	1
6693	85917	92.288332907446	3
6693	85923	92.290356316448	3
6693	86011	92.362205192001	4
6693	86022	92.373280466637	4
6693	86201	92.478910387814	1
6693	86832	92.878910387814	3
6693	87455	93.235307351171	3
6693	87951	93.636407351171	4
6693	88596	94.236407351171	5
6693	88686	94.31316083246	4
6693	88862	94.436637783438	1
6693	88874	94.44319048136	1
6693	88946	94.517296837033	1
6693	89220	94.722383427998	2
6693	89832	95.222383427998	5
6693	90400	95.623483427998	5
6693	90616	95.823483427998	1
6693	91294	96.428043365992	5
6693	91905	96.941413362842	4
6693	91974	96.986123803005	7
6693	92116	97.090893121065	1
6693	93053	97.890893121065	7
6693	93234	97.991760392621	0
6693	93971	98.650421389238	8
6693	93990	98.655360102575	8
6693	94143	98.756955286224	1
6693	94718	99.156955286224	3
6693	94978	99.362693328872	1
6693	95349	99.672683516047	2
6693	95615	99.888681150581	1
6693	96260	100.39052997126	5
6693	97032	101.094632638473	6
6693	97575	101.604348841203	4
6693	97625	101.641977921738	1
6693	97753	101.749346217311	1
6693	98699	102.494700857444	6
6693	99097	102.894700857444	4
6693	99577	103.302693615255	1
6693	99693	103.403793615255	1
6693	100484	104.108246228956	6
6693	101055	104.514351766293	4
6693	101975	105.31642647348	7
6693	102606	105.81986119579	6
6693	103169	106.31986119579	4
6693	103910	106.920691925989	5
6693	104230	107.225448773825	2
6693	104306	107.267969358313	2
6693	104593	107.531740157027	2
6693	104637	107.570723204183	2
6693	104879	107.777431153673	2
6693	105565	108.477431153673	6
6693	105989	108.88374634053	3
6693	106379	109.288374839126	3
6693	106614	109.493959880736	2
6693	106922	109.793959880736	2
6693	107282	110.092893993384	2
6693	107748	110.593993993384	5
6693	108587	111.493993993384	9
6693	108802	111.702466562344	1
6693	108817	111.703566562344	0
6693	109417	112.303566562344	5
6693	109659	112.506556825047	1
6693	110684	113.29933436422	6
6693	110831	113.41236828228	8
6693	111322	113.817793733355	4
6693	111994	114.417793733355	7
6693	112343	114.718169226845	2
6693	113395	115.525064277604	7
6693	114946	116.722939178349	14
6693	115415	117.131730381541	4
6693	116385	118.031730381541	8
6693	117631	119.032692704381	10
6693	117820	119.18765537638	8
6693	118539	119.789199838684	6
6693	119090	120.204152337944	2
6693	119103	120.222463775255	2
6693	119252	120.331627076892	1
6693	120431	121.531627076892	12
6693	120771	121.837452692771	2
6693	121116	122.140359401245	3
6693	121623	122.540359401245	3
6693	122646	123.45814002053	8
6693	122852	123.663468083114	1
6693	122993	123.765510875443	1
6693	123757	124.365510875443	5
6693	124456	124.965829822742	6
6693	125269	125.706484833598	7
6693	125364	125.77414312573	7
6693	126029	126.31215554138	5
6693	126299	126.482152782176	6
6693	126659	126.782885421051	2
6693	126676	126.812386337461	4
6693	126827	126.914166385824	1
6693	127183	127.214166385824	2
6693	127689	127.616268245237	3
6693	128484	128.217970357179	6
6693	129722	129.117970357179	9
6693	129871	129.221683270829	1
6693	130401	129.678508932109	4
6693	130623	129.88716434719	1
6693	131174	130.293007683687	5
6693	131749	130.793007683687	4
6693	132008	130.994107683687	2
6693	132228	131.195453400392	1
6693	133850	132.525390075753	4
6693	134980	133.425390075753	10
6693	135603	133.93312260512	4
6693	135865	134.137938671508	2
6693	136614	134.837938671508	6
6693	137249	135.343961124115	4
6693	137599	135.652585058247	2
6693	137635	135.704582536614	1
6694	141	20.101	0.875
6694	292	20.306697201881	0.875
6694	419	20.520800571859	0.875
6694	716	20.927316315859	0.625
6694	1382	21.633126500752	0.25
6694	1669	21.838592946113	0.875
6694	1674	21.838912210657	0.875
6694	2019	22.140012210657	0.625
6694	2334	22.440012210657	0.75
6694	2695	22.748988464337	0.75
6694	2923	22.953993470421	0.75
6694	3298	23.261765232583	0.75
6694	3613	23.538282702456	0.75
6694	3663	23.546627501716	0
6694	3808	23.652086170096	0.875
6694	4846	24.552086170096	0
6694	5271	24.953702164943	0.5
6694	5281	24.954842999217	0.625
6694	5497	25.157814469118	0.875
6694	5512	25.161702256112	0.875
6694	5801	25.468487382298	0.75
6694	5804	25.469244720897	0.75
6694	6438	26.070344720897	0.25
6694	6974	26.470344720897	0.5
6694	7996	27.371444720897	-0.125
6694	8788	28.000126564776	0.625
6694	9320	28.403592227872	0.625
6694	9524	28.571444720897	-0.375
6694	10758	29.577294481303	-0.25
6694	11214	29.977294481303	0.625
6694	11577	30.317077384292	0.75
6694	11916	30.584701042035	0.25
6694	12058	30.720997093451	0.625
6694	12341	30.989410904135	0.625
6694	12670	31.225451763994	0.5
6694	13113	31.593808391381	0.375
6694	13166	31.631647188572	0.625
6694	13272	31.729377797985	-0.125
6694	13796	32.131156761778	0.5
6694	14584	32.731156761778	0.25
6694	14841	32.932394399411	0.875
6694	15105	33.140915179925	0.875
6694	15322	33.344119009789	0.875
6694	15740	33.746944353475	0.5
6694	16581	34.446944353475	0.25
6694	16810	34.649407099745	0.875
6694	16939	34.759117327286	0.875
6694	17451	35.159117327286	0.625
6694	18801	36.563087567908	-0.625
6694	18905	36.645842493242	-0.625
6694	19693	37.280073181165	0.125
6694	20183	37.686370902568	0.375
6694	20955	38.286370902568	0.375
6694	21217	38.49088620354	0.875
6694	22471	39.590193928897	0.375
6694	22827	39.899730131668	0.625
6694	22927	40.000455533233	-0.875
6694	24244	41.011052898791	-0.5
6694	24950	41.611052898791	0.375
6694	25623	42.101952494975	0.25
6694	25841	42.224651316121	0.375
6694	26256	42.527210704099	0.625
6694	27057	43.127210704099	0.375
6694	28000	43.929019351055	0.125
6694	28418	44.246253340755	0.25
6694	28499	44.332588486576	0.5
6694	28759	44.533688486576	0.75
6694	29233	44.933688486576	0.5
6694	30583	45.97392563931	0.25
6694	31852	46.93923259916	0.75
6694	32114	47.1762792605	-0.5
6694	32408	47.477831067041	0.75
6694	33973	48.777831067041	-0.75
6694	34638	49.377972487184	0.25
6694	35087	49.79542256782	0.625
6694	35413	50.099386407385	0.75
6694	35418	50.101215730138	0.25
6694	36161	50.702315730138	-0.125
6694	36437	50.902315730138	0.875
6694	37516	51.806296670748	0
6694	38136	52.324043556606	0.625
6694	38363	52.555108994952	-0.75
6694	38437	52.614043552832	-0.125
6694	38655	52.818771533944	0.75
6694	38905	53.018771533944	0.875
6694	39610	53.634546844189	0.25
6694	39745	53.749175027161	1
6694	39830	53.811183885017	1
6694	40021	53.966732780133	0.875
6694	40809	54.621683703131	0.125
6694	41193	54.922783703131	0.5
6694	41698	55.335978517005	0.625
6694	43026	56.742642079003	-0.75
6694	44443	57.850584074274	-0.75
6694	46293	59.450584074274	-1
6694	47790	60.656397575707	-0.5
6694	48605	61.357287327823	0
6694	48867	61.559943451717	0.875
6694	49083	61.761879162228	0.875
6694	49752	62.264706789506	0.375
6694	50097	62.564706789506	0.75
6694	50235	62.673007773477	0.75
6694	51700	63.88208199092	-0.625
6694	52172	64.28208199092	0.625
6694	52679	64.703732791079	0.625
6694	52754	64.782810839303	0.375
6694	53324	65.292102063425	0.25
6694	54418	66.297852161527	-0.25
6694	55066	66.798952161527	0.375
6694	55410	67.098952161527	0.75
6694	56406	67.963998312553	0.5
6694	56818	68.399977957456	0.375
6694	57005	68.534476981459	-0.125
6694	57278	68.772053992196	0
6694	57387	68.861370236573	0.125
6694	57920	69.368863562092	0.375
6694	58550	69.968863562092	0.375
6694	58897	70.277204033029	0.75
6694	59303	70.578304033029	0.625
6694	60018	71.178304033029	0.375
6694	60151	71.283434939337	0.875
6694	60570	71.683434939337	0.625
6694	61025	72.086083880987	0.625
6694	61794	72.790755033863	0
6694	62451	73.298558406241	0.375
6694	62959	73.701717817241	0.625
6694	63205	73.904827835268	0.875
6694	63471	74.111781814902	0.625
6694	64964	75.311781814902	-0.5
6694	65335	75.613695885751	0.75
6694	65666	75.922279528948	0
6694	65797	76.017930297178	0.625
6694	66443	76.525621593387	0.375
6694	67831	77.525621593387	-0.125
6694	68268	77.834477172246	0.75
6694	68980	78.380683225371	0.375
6694	69302	78.643040376595	0
6694	69485	78.818379852999	-0.125
6694	70761	79.821982055609	-0.375
6694	71070	80.121982055609	0.75
6694	71701	80.725401806973	0.375
6694	72153	81.056602634695	0.75
6694	72704	81.464650349274	0.375
6694	73696	82.215069151527	0.375
6694	74036	82.520886226873	0.75
6694	74287	82.727718466118	0.875
6694	75306	83.528818466118	-0.125
6694	76527	84.628818466118	-0.25
6694	76843	84.930693700548	0.75
6694	77291	85.243483433937	0.625
6694	77546	85.43469099624	0.5
6694	78958	86.642465958935	-0.625
6694	79278	86.942465958935	0.75
6694	79711	87.263792668529	0.75
6694	79808	87.348815373971	0.5
6694	80219	87.674860555866	0.75
6694	81084	88.374860555866	0.25
6694	81689	88.881109570768	0.5
6694	82154	89.289422941194	0.625
6694	82468	89.590279122009	0.75
6694	82579	89.690307605655	0.875
6694	82838	89.936682390008	0.75
6694	83783	90.637782390008	0.125
6694	84895	91.537782390008	-0.125
6694	85346	91.857424103373	0.75
6694	85378	91.874302756522	0.75
6694	85408	91.888029034637	0.875
6694	85917	92.288332907446	0.625
6694	85923	92.290356316448	0.625
6694	86011	92.362205192001	0.5
6694	86022	92.373280466637	0.5
6694	86201	92.478910387814	0.875
6694	86832	92.878910387814	0.625
6694	87455	93.235307351171	0.625
6694	87951	93.636407351171	0.5
6694	88596	94.236407351171	0.375
6694	88686	94.31316083246	0.5
6694	88862	94.436637783438	0.875
6694	88874	94.44319048136	0.875
6694	88946	94.517296837033	0.875
6694	89220	94.722383427998	0.75
6694	89832	95.222383427998	0.375
6694	90400	95.623483427998	0.375
6694	90616	95.823483427998	0.875
6694	91294	96.428043365992	0.375
6694	91905	96.941413362842	0.5
6694	91974	96.986123803005	0.125
6694	92116	97.090893121065	0.875
6694	93053	97.890893121065	0.125
6694	93234	97.991760392621	1
6694	93971	98.650421389238	0
6694	93990	98.655360102575	0
6694	94143	98.756955286224	0.875
6694	94718	99.156955286224	0.625
6694	94978	99.362693328872	0.875
6694	95349	99.672683516047	0.75
6694	95615	99.888681150581	0.875
6694	96260	100.39052997126	0.375
6694	97032	101.094632638473	0.25
6694	97575	101.604348841203	0.5
6694	97625	101.641977921738	0.875
6694	97753	101.749346217311	0.875
6694	98699	102.494700857444	0.25
6694	99097	102.894700857444	0.5
6694	99577	103.302693615255	0.875
6694	99693	103.403793615255	0.875
6694	100484	104.108246228956	0.25
6694	101055	104.514351766293	0.5
6694	101975	105.31642647348	0.125
6694	102606	105.81986119579	0.25
6694	103169	106.31986119579	0.5
6694	103910	106.920691925989	0.375
6694	104230	107.225448773825	0.75
6694	104306	107.267969358313	0.75
6694	104593	107.531740157027	0.75
6694	104637	107.570723204183	0.75
6694	104879	107.777431153673	0.75
6694	105565	108.477431153673	0.25
6694	105989	108.88374634053	0.625
6694	106379	109.288374839126	0.625
6694	106614	109.493959880736	0.75
6694	106922	109.793959880736	0.75
6694	107282	110.092893993384	0.75
6694	107748	110.593993993384	0.375
6694	108587	111.493993993384	-0.125
6694	108802	111.702466562344	0.875
6694	108817	111.703566562344	1
6694	109417	112.303566562344	0.375
6694	109659	112.506556825047	0.875
6694	110684	113.29933436422	0.25
6694	110831	113.41236828228	0
6694	111322	113.817793733355	0.5
6694	111994	114.417793733355	0.125
6694	112343	114.718169226845	0.75
6694	113395	115.525064277604	0.125
6694	114946	116.722939178349	-0.75
6694	115415	117.131730381541	0.5
6694	116385	118.031730381541	0
6694	117631	119.032692704381	-0.25
6694	117820	119.18765537638	0
6694	118539	119.789199838684	0.25
6694	119090	120.204152337944	0.75
6694	119103	120.222463775255	0.75
6694	119252	120.331627076892	0.875
6694	120431	121.531627076892	-0.5
6694	120771	121.837452692771	0.75
6694	121116	122.140359401245	0.625
6694	121623	122.540359401245	0.625
6694	122646	123.45814002053	0
6694	122852	123.663468083114	0.875
6694	122993	123.765510875443	0.875
6694	123757	124.365510875443	0.375
6694	124456	124.965829822742	0.25
6694	125269	125.706484833598	0.125
6694	125364	125.77414312573	0.125
6694	126029	126.31215554138	0.375
6694	126299	126.482152782176	0.25
6694	126659	126.782885421051	0.75
6694	126676	126.812386337461	0.5
6694	126827	126.914166385824	0.875
6694	127183	127.214166385824	0.75
6694	127689	127.616268245237	0.625
6694	128484	128.217970357179	0.25
6694	129722	129.117970357179	-0.125
6694	129871	129.221683270829	0.875
6694	130401	129.678508932109	0.5
6694	130623	129.88716434719	0.875
6694	131174	130.293007683687	0.375
6694	131749	130.793007683687	0.5
6694	132008	130.994107683687	0.75
6694	132228	131.195453400392	0.875
6694	133850	132.525390075753	0.5
6694	134980	133.425390075753	-0.25
6694	135603	133.93312260512	0.5
6694	135865	134.137938671508	0.75
6694	136614	134.837938671508	0.25
6694	137249	135.343961124115	0.5
6694	137599	135.652585058247	0.75
6694	137635	135.704582536614	0.875
6695	141	20.101	0.1
6695	292	20.306697201881	0.2
6695	419	20.520800571859	0.2
6695	716	20.927316315859	0.4
6695	1382	21.633126500752	0.7
6695	1669	21.838592946113	0.2
6695	1674	21.838912210657	0.2
6695	2019	22.140012210657	0.3
6695	2334	22.440012210657	0.3
6695	2695	22.748988464337	0.3
6695	2923	22.953993470421	0.2
6695	3298	23.261765232583	0.3
6695	3613	23.538282702456	0.3
6695	3663	23.546627501716	0.7
6695	3808	23.652086170096	0.1
6695	4846	24.552086170096	0.9
6695	5271	24.953702164943	0.4
6695	5281	24.954842999217	0.4
6695	5497	25.157814469118	0.2
6695	5512	25.161702256112	0.2
6695	5801	25.468487382298	0.3
6695	5804	25.469244720897	0.3
6695	6438	26.070344720897	0.6
6695	6974	26.470344720897	0.4
6695	7996	27.371444720897	0.9
6695	8788	28.000126564776	0.3
6695	9320	28.403592227872	0.4
6695	9524	28.571444720897	1.2
6695	10758	29.577294481303	1
6695	11214	29.977294481303	0.4
6695	11577	30.317077384292	0.3
6695	11916	30.584701042035	0.6
6695	12058	30.720997093451	0.4
6695	12341	30.989410904135	0.4
6695	12670	31.225451763994	0.5
6695	13113	31.593808391381	0.6
6695	13166	31.631647188572	0.4
6695	13272	31.729377797985	0.8
6695	13796	32.131156761778	0.4
6695	14584	32.731156761778	0.6
6695	14841	32.932394399411	0.2
6695	15105	33.140915179925	0.2
6695	15322	33.344119009789	0.2
6695	15740	33.746944353475	0.4
6695	16581	34.446944353475	0.7
6695	16810	34.649407099745	0.2
6695	16939	34.759117327286	0.1
6695	17451	35.159117327286	0.4
6695	18801	36.563087567908	1.4
6695	18905	36.645842493242	1.4
6695	19693	37.280073181165	0.7
6695	20183	37.686370902568	0.4
6695	20955	38.286370902568	0.6
6695	21217	38.49088620354	0.2
6695	22471	39.590193928897	0.6
6695	22827	39.899730131668	0.3
6695	22927	40.000455533233	1.5
6695	24244	41.011052898791	1
6695	24950	41.611052898791	0.6
6695	25623	42.101952494975	0.5
6695	25841	42.224651316121	0.6
6695	26256	42.527210704099	0.3
6695	27057	43.127210704099	0.6
6695	28000	43.929019351055	0.8
6695	28418	44.246253340755	0.7
6695	28499	44.332588486576	0.4
6695	28759	44.533688486576	0.2
6695	29233	44.933688486576	0.4
6695	30583	45.97392563931	0.5
6695	31852	46.93923259916	0.3
6695	32114	47.1762792605	1.2
6695	32408	47.477831067041	0.1
6695	33973	48.777831067041	1.3
6695	34638	49.377972487184	0.6
6695	35087	49.79542256782	0.4
6695	35413	50.099386407385	0.3
6695	35418	50.101215730138	0.6
6695	36161	50.702315730138	0.6
6695	36437	50.902315730138	0.2
6695	37516	51.806296670748	0.9
6695	38136	52.324043556606	0.4
6695	38363	52.555108994952	1.4
6695	38437	52.614043552832	0.8
6695	38655	52.818771533944	0.2
6695	38905	53.018771533944	0.2
6695	39610	53.634546844189	0.6
6695	39745	53.749175027161	0.1
6695	39830	53.811183885017	0.1
6695	40021	53.966732780133	0.2
6695	40809	54.621683703131	0.8
6695	41193	54.922783703131	0.3
6695	41698	55.335978517005	0.4
6695	43026	56.742642079003	1.4
6695	44443	57.850584074274	1.1
6695	46293	59.450584074274	1.6
6695	47790	60.656397575707	1.2
6695	48605	61.357287327823	0.7
6695	48867	61.559943451717	0.2
6695	49083	61.761879162228	0.2
6695	49752	62.264706789506	0.5
6695	50097	62.564706789506	0.3
6695	50235	62.673007773477	0.3
6695	51700	63.88208199092	1.2
6695	52172	64.28208199092	0.4
6695	52679	64.703732791079	0.4
6695	52754	64.782810839303	0.5
6695	53324	65.292102063425	0.5
6695	54418	66.297852161527	1
6695	55066	66.798952161527	0.5
6695	55410	67.098952161527	0.3
6695	56406	67.963998312553	0.5
6695	56818	68.399977957456	0.6
6695	57005	68.534476981459	0.9
6695	57278	68.772053992196	0.8
6695	57387	68.861370236573	0.8
6695	57920	69.368863562092	0.5
6695	58550	69.968863562092	0.6
6695	58897	70.277204033029	0.3
6695	59303	70.578304033029	0.3
6695	60018	71.178304033029	0.6
6695	60151	71.283434939337	0.1
6695	60570	71.683434939337	0.4
6695	61025	72.086083880987	0.4
6695	61794	72.790755033863	0.7
6695	62451	73.298558406241	0.5
6695	62959	73.701717817241	0.4
6695	63205	73.904827835268	0.2
6695	63471	74.111781814902	0.2
6695	64964	75.311781814902	1.2
6695	65335	75.613695885751	0.3
6695	65666	75.922279528948	0.9
6695	65797	76.017930297178	0.4
6695	66443	76.525621593387	0.5
6695	67831	77.525621593387	1
6695	68268	77.834477172246	0.3
6695	68980	78.380683225371	0.6
6695	69302	78.643040376595	0.8
6695	69485	78.818379852999	0.9
6695	70761	79.821982055609	1
6695	71070	80.121982055609	0.3
6695	71701	80.725401806973	0.6
6695	72153	81.056602634695	0.3
6695	72704	81.464650349274	0.4
6695	73696	82.215069151527	0.5
6695	74036	82.520886226873	0.3
6695	74287	82.727718466118	0.2
6695	75306	83.528818466118	0.8
6695	76527	84.628818466118	1.1
6695	76843	84.930693700548	0.3
6695	77291	85.243483433937	0.4
6695	77546	85.43469099624	0.5
6695	78958	86.642465958935	1.2
6695	79278	86.942465958935	0.3
6695	79711	87.263792668529	0.3
6695	79808	87.348815373971	0.4
6695	80219	87.674860555866	0.2
6695	81084	88.374860555866	0.7
6695	81689	88.881109570768	0.5
6695	82154	89.289422941194	0.4
6695	82468	89.590279122009	0.3
6695	82579	89.690307605655	0.1
6695	82838	89.936682390008	0.3
6695	83783	90.637782390008	0.7
6695	84895	91.537782390008	0.9
6695	85346	91.857424103373	0.3
6695	85378	91.874302756522	0.2
6695	85408	91.888029034637	0.2
6695	85917	92.288332907446	0.4
6695	85923	92.290356316448	0.4
6695	86011	92.362205192001	0.5
6695	86022	92.373280466637	0.5
6695	86201	92.478910387814	0.1
6695	86832	92.878910387814	0.4
6695	87455	93.235307351171	0.4
6695	87951	93.636407351171	0.4
6695	88596	94.236407351171	0.6
6695	88686	94.31316083246	0.4
6695	88862	94.436637783438	0.2
6695	88874	94.44319048136	0.2
6695	88946	94.517296837033	0.2
6695	89220	94.722383427998	0.2
6695	89832	95.222383427998	0.5
6695	90400	95.623483427998	0.4
6695	90616	95.823483427998	0.2
6695	91294	96.428043365992	0.6
6695	91905	96.941413362842	0.5
6695	91974	96.986123803005	0.8
6695	92116	97.090893121065	0.1
6695	93053	97.890893121065	0.8
6695	93234	97.991760392621	0.1
6695	93971	98.650421389238	0.8
6695	93990	98.655360102575	0.9
6695	94143	98.756955286224	0.1
6695	94718	99.156955286224	0.4
6695	94978	99.362693328872	0.2
6695	95349	99.672683516047	0.3
6695	95615	99.888681150581	0.2
6695	96260	100.39052997126	0.5
6695	97032	101.094632638473	0.7
6695	97575	101.604348841203	0.5
6695	97625	101.641977921738	0.2
6695	97753	101.749346217311	0.1
6695	98699	102.494700857444	0.6