version 2
run Stability-108-20130528-00:57:35-21385
attr configname Stability
attr datetime 20130528-00:57:35
attr experiment Stability
attr inifile omnetpp.ini
attr iterationvars $0=1e-4
attr iterationvars2 "$0=1e-4, $repetition=8"
attr measurement $0=1e-4
attr network Network
attr processid 21385
attr repetition 8
attr replication #8
attr resultdir results
attr runnumber 108
attr seedset 108

vector 10572  Network.churner  inGoingSizeSig:vector  ETV
vector 10479  Network.dyn_peer[1]  lookupHopsSig:vector  ETV
vector 10480  Network.dyn_peer[1]  lookupStabilitySig:vector  ETV
vector 10481  Network.dyn_peer[1]  lookupTimeSig:vector  ETV
vector 10503  Network.dyn_peer[9]  lookupHopsSig:vector  ETV
vector 10504  Network.dyn_peer[9]  lookupStabilitySig:vector  ETV
vector 10505  Network.dyn_peer[9]  lookupTimeSig:vector  ETV
vector 10509  Network.dyn_peer[11]  lookupHopsSig:vector  ETV
vector 10510  Network.dyn_peer[11]  lookupStabilitySig:vector  ETV
vector 10511  Network.dyn_peer[11]  lookupTimeSig:vector  ETV
vector 10521  Network.dyn_peer[15]  lookupHopsSig:vector  ETV
vector 10522  Network.dyn_peer[15]  lookupStabilitySig:vector  ETV
vector 10523  Network.dyn_peer[15]  lookupTimeSig:vector  ETV
vector 10527  Network.dyn_peer[17]  lookupHopsSig:vector  ETV
vector 10528  Network.dyn_peer[17]  lookupStabilitySig:vector  ETV
vector 10529  Network.dyn_peer[17]  lookupTimeSig:vector  ETV
vector 10554  Network.dyn_peer[26]  lookupHopsSig:vector  ETV
vector 10555  Network.dyn_peer[26]  lookupStabilitySig:vector  ETV
vector 10556  Network.dyn_peer[26]  lookupTimeSig:vector  ETV
vector 10560  Network.dyn_peer[28]  lookupHopsSig:vector  ETV
vector 10561  Network.dyn_peer[28]  lookupStabilitySig:vector  ETV
vector 10562  Network.dyn_peer[28]  lookupTimeSig:vector  ETV
vector 10482  Network.dyn_peer[2]  lookupHopsSig:vector  ETV
vector 10483  Network.dyn_peer[2]  lookupStabilitySig:vector  ETV
vector 10484  Network.dyn_peer[2]  lookupTimeSig:vector  ETV
vector 10494  Network.dyn_peer[6]  lookupHopsSig:vector  ETV
vector 10495  Network.dyn_peer[6]  lookupStabilitySig:vector  ETV
vector 10496  Network.dyn_peer[6]  lookupTimeSig:vector  ETV
vector 10500  Network.dyn_peer[8]  lookupHopsSig:vector  ETV
vector 10501  Network.dyn_peer[8]  lookupStabilitySig:vector  ETV
vector 10502  Network.dyn_peer[8]  lookupTimeSig:vector  ETV
vector 10512  Network.dyn_peer[12]  lookupHopsSig:vector  ETV
vector 10513  Network.dyn_peer[12]  lookupStabilitySig:vector  ETV
vector 10514  Network.dyn_peer[12]  lookupTimeSig:vector  ETV
vector 10524  Network.dyn_peer[16]  lookupHopsSig:vector  ETV
vector 10525  Network.dyn_peer[16]  lookupStabilitySig:vector  ETV
vector 10526  Network.dyn_peer[16]  lookupTimeSig:vector  ETV
vector 10476  Network.dyn_peer[0]  lookupHopsSig:vector  ETV
vector 10477  Network.dyn_peer[0]  lookupStabilitySig:vector  ETV
vector 10478  Network.dyn_peer[0]  lookupTimeSig:vector  ETV
vector 10485  Network.dyn_peer[3]  lookupHopsSig:vector  ETV
vector 10486  Network.dyn_peer[3]  lookupStabilitySig:vector  ETV
vector 10487  Network.dyn_peer[3]  lookupTimeSig:vector  ETV
vector 10497  Network.dyn_peer[7]  lookupHopsSig:vector  ETV
vector 10498  Network.dyn_peer[7]  lookupStabilitySig:vector  ETV
vector 10499  Network.dyn_peer[7]  lookupTimeSig:vector  ETV
vector 10506  Network.dyn_peer[10]  lookupHopsSig:vector  ETV
vector 10507  Network.dyn_peer[10]  lookupStabilitySig:vector  ETV
vector 10508  Network.dyn_peer[10]  lookupTimeSig:vector  ETV
vector 10515  Network.dyn_peer[13]  lookupHopsSig:vector  ETV
vector 10516  Network.dyn_peer[13]  lookupStabilitySig:vector  ETV
vector 10517  Network.dyn_peer[13]  lookupTimeSig:vector  ETV
vector 10539  Network.dyn_peer[21]  lookupHopsSig:vector  ETV
vector 10540  Network.dyn_peer[21]  lookupStabilitySig:vector  ETV
vector 10541  Network.dyn_peer[21]  lookupTimeSig:vector  ETV
vector 10542  Network.dyn_peer[22]  lookupHopsSig:vector  ETV
vector 10543  Network.dyn_peer[22]  lookupStabilitySig:vector  ETV
vector 10544  Network.dyn_peer[22]  lookupTimeSig:vector  ETV
vector 10548  Network.dyn_peer[24]  lookupHopsSig:vector  ETV
vector 10549  Network.dyn_peer[24]  lookupStabilitySig:vector  ETV
vector 10550  Network.dyn_peer[24]  lookupTimeSig:vector  ETV
vector 10566  Network.dyn_peer[30]  lookupHopsSig:vector  ETV
vector 10567  Network.dyn_peer[30]  lookupStabilitySig:vector  ETV
vector 10568  Network.dyn_peer[30]  lookupTimeSig:vector  ETV
vector 10488  Network.dyn_peer[4]  lookupHopsSig:vector  ETV
vector 10489  Network.dyn_peer[4]  lookupStabilitySig:vector  ETV
vector 10490  Network.dyn_peer[4]  lookupTimeSig:vector  ETV
vector 10491  Network.dyn_peer[5]  lookupHopsSig:vector  ETV
vector 10492  Network.dyn_peer[5]  lookupStabilitySig:vector  ETV
vector 10493  Network.dyn_peer[5]  lookupTimeSig:vector  ETV
vector 10530  Network.dyn_peer[18]  lookupHopsSig:vector  ETV
vector 10531  Network.dyn_peer[18]  lookupStabilitySig:vector  ETV
vector 10532  Network.dyn_peer[18]  lookupTimeSig:vector  ETV
vector 10533  Network.dyn_peer[19]  lookupHopsSig:vector  ETV
vector 10534  Network.dyn_peer[19]  lookupStabilitySig:vector  ETV
vector 10535  Network.dyn_peer[19]  lookupTimeSig:vector  ETV
vector 10551  Network.dyn_peer[25]  lookupHopsSig:vector  ETV
vector 10552  Network.dyn_peer[25]  lookupStabilitySig:vector  ETV
vector 10553  Network.dyn_peer[25]  lookupTimeSig:vector  ETV
vector 10557  Network.dyn_peer[27]  lookupHopsSig:vector  ETV
vector 10558  Network.dyn_peer[27]  lookupStabilitySig:vector  ETV
vector 10559  Network.dyn_peer[27]  lookupTimeSig:vector  ETV
vector 10563  Network.dyn_peer[29]  lookupHopsSig:vector  ETV
vector 10564  Network.dyn_peer[29]  lookupStabilitySig:vector  ETV
vector 10565  Network.dyn_peer[29]  lookupTimeSig:vector  ETV
vector 10518  Network.dyn_peer[14]  lookupHopsSig:vector  ETV
vector 10519  Network.dyn_peer[14]  lookupStabilitySig:vector  ETV
vector 10520  Network.dyn_peer[14]  lookupTimeSig:vector  ETV
vector 10536  Network.dyn_peer[20]  lookupHopsSig:vector  ETV
vector 10537  Network.dyn_peer[20]  lookupStabilitySig:vector  ETV
vector 10538  Network.dyn_peer[20]  lookupTimeSig:vector  ETV
vector 10545  Network.dyn_peer[23]  lookupHopsSig:vector  ETV
vector 10546  Network.dyn_peer[23]  lookupStabilitySig:vector  ETV
vector 10547  Network.dyn_peer[23]  lookupTimeSig:vector  ETV
vector 10569  Network.dyn_peer[31]  lookupHopsSig:vector  ETV
vector 10570  Network.dyn_peer[31]  lookupStabilitySig:vector  ETV
vector 10571  Network.dyn_peer[31]  lookupTimeSig:vector  ETV
10476	210	20.2000001	2
10476	815	21.2000001	9
10476	1293	21.606172498378	3
10476	1307	21.608633186804	3
10476	1419	21.701801346658	3
10476	1933	22.102131725868	5
10476	2258	22.302131725868	1
10476	3286	23.011845920173	7
10476	3635	23.320463432218	2
10476	3937	23.529468071318	1
10476	4047	23.629697682853	1
10476	4165	23.727499661988	4
10476	4188	23.731440527179	1
10476	4442	23.94434611954	2
10476	4576	24.048490733014	1
10476	5563	24.943006335249	4
10476	6298	25.543006335249	6
10476	7178	26.155301913817	5
10476	7440	26.338394785281	7
10476	7580	26.457468682443	3
10476	7680	26.538622526249	2
10476	8024	26.844161532326	3
10476	8336	27.144161532326	2
10476	9377	28.044261632326	9
10476	9759	28.344261632326	2
10476	10500	28.952041778843	6
10476	10806	29.152380452578	3
10476	11191	29.457303261331	2
10476	11885	30.0666926269	5
10476	12235	30.368307351893	2
10476	12251	30.372114581124	0
10476	13244	31.19815862157	4
10476	13819	31.69815862157	4
10476	14047	31.902935417912	1
10476	14355	32.208893695702	2
10476	14699	32.515204877254	3
10476	15110	32.915204877254	3
10476	15328	33.119669409413	2
10476	15829	33.519669409413	3
10476	16474	34.129620783524	5
10476	16959	34.531765974361	3
10476	18216	35.532962272289	10
10476	18669	35.939112762576	3
10476	18721	35.949725245017	6
10476	18972	36.151424826768	2
10476	19153	36.351424826768	1
10476	19503	36.654620739449	2
10476	20325	37.363189348186	7
10476	20722	37.673164168217	2
10476	20991	37.88304827052	1
10476	21579	38.398832622795	4
10476	21840	38.600187255205	1
10476	22460	39.022941549368	3
10476	22631	39.169733498701	3
10476	22783	39.279011040664	12
10476	23423	39.787124555733	4
10476	23570	39.926859886985	8
10476	23691	40.032258029417	1
10476	24012	40.332258029417	2
10476	25000	41.241581625407	9
10476	25353	41.494603128899	8
10476	25474	41.594703228899	1
10476	25743	41.794703228899	1
10476	26733	42.71113550338	6
10476	27048	43.01123560338	3
10476	27671	43.589804469753	1
10476	28340	44.093429153289	5
10476	28873	44.493429153289	3
10476	29382	44.895338440551	3
10476	29815	45.305315331788	3
10476	30236	45.708809639417	3
10476	30907	46.315840849239	7
10476	30928	46.325792099326	5
10476	30945	46.330402107327	12
10476	31852	47.134607371977	8
10476	32515	47.734607371977	5
10476	32930	48.044046697086	3
10476	33275	48.328290988976	4
10476	33539	48.532295678335	1
10476	33801	48.73823755447	2
10476	33820	48.746612781831	5
10476	34982	49.847198899368	12
10476	35599	50.447198899368	5
10476	36188	50.84892132099	3
10476	36329	50.959376761527	3
10476	36444	51.057427423235	1
10476	36876	51.362127976775	3
10476	36891	51.367146801123	2
10476	37247	51.667468164324	2
10476	37488	51.867568264324	2
10476	38094	52.367568264324	4
10476	38771	52.868419990855	5
10476	39030	53.106101147774	3
10476	39318	53.368697388443	4
10476	39848	53.770509036839	4
10476	41320	54.970509036839	12
10476	41790	55.375866340134	3
10476	42419	55.98296824005	6
10476	43287	56.683826910569	6
10476	43416	56.783916503489	7
10476	43556	56.89254498209	1
10476	44056	57.286553307876	6
10476	44332	57.486892613817	1
10476	44746	57.789627089121	3
10476	45149	58.189627089121	3
10476	45302	58.395507183617	1
10476	45431	58.497538396733	1
10476	45779	58.797538396733	2
10476	46068	59.046990623826	0
10476	46959	59.725615109292	5
10476	47493	60.125715209292	4
10476	47693	60.325715209292	1
10476	47963	60.534769761452	1
10476	48478	60.938509301612	3
10476	48500	60.945427521396	2
10476	49045	61.454447495165	4
10476	49048	61.455276029752	4
10476	49152	61.561717537453	1
10476	49548	61.961717537453	3
10476	50101	62.468414979195	4
10476	50312	62.66131367195	3
10476	50349	62.676654793906	1
10476	51167	63.278920138693	7
10476	51450	63.478920138693	1
10476	51683	63.679020238693	2
10476	52454	64.344319535469	3
10476	52610	64.479020238693	7
10476	52831	64.653454721547	3
10476	52848	64.666330088979	3
10476	54515	66.170431193099	16
10476	55764	67.370431193099	12
10476	56356	67.878209547367	4
10476	56545	68.080521768223	1
10476	56994	68.490402398293	4
10476	57409	68.890402398293	3
10476	58130	69.491945507779	5
10476	59677	70.897477206216	15
10476	60135	71.416335723037	3
10476	60236	71.502141198202	5
10476	60455	71.717827577341	2
10476	60466	71.720224797984	1
10476	60477	71.730759217189	1
10476	60739	71.936654360476	2
10476	61026	72.236654360476	2
10476	61311	72.443333362094	1
10476	61917	72.954789557608	5
10476	62249	73.238119833881	6
10476	62851	73.748061516653	5
10476	63430	74.348061516653	5
10476	64180	74.951876443568	5
10476	64413	75.194980279058	4
10476	64681	75.452383316817	4
10476	64740	75.504818140161	3
10476	65416	76.106354521899	5
10476	65438	76.127522743651	8
10476	65941	76.536877881673	4
10476	66738	77.236877881673	6
10476	67128	77.542810565375	3
10476	67503	77.846105278838	3
10476	68173	78.446105278838	7
10476	68433	78.651800700892	1
10476	68968	79.096120127668	1
10476	69342	79.400797948246	2
10476	69770	79.710552005191	3
10476	70044	79.910552005191	1
10476	70753	80.412593295861	5
10476	71157	80.716767924775	2
10476	71360	80.901501063363	2
10476	71660	81.204118911666	2
10476	71816	81.329486766776	6
10476	71980	81.509922321952	2
10476	73011	82.414390721661	10
10476	74670	83.98627134733	9
10476	74942	84.214390721661	18
10476	75433	84.62112984697	4
10476	75667	84.82112984697	1
10476	76162	85.230497807253	4
10476	76285	85.33759724918	1
10476	77103	86.03759724918	6
10476	77278	86.174190429898	3
10476	77728	86.477566217313	3
10476	78190	86.877566217313	3
10476	78485	87.182458559617	2
10476	79013	87.785656840717	5
10476	79214	87.98296124979	3
10476	79361	88.094388910752	2
10476	79646	88.299005538332	2
10476	80276	88.799005538332	5
10476	81043	89.402048069561	8
10476	81189	89.502148169561	1
10476	82028	90.202148169561	6
10476	82290	90.403771120526	1
10476	82519	90.608685579013	1
10476	82808	90.809401997053	2
10476	83081	91.009401997053	1
10476	83877	91.601690507212	2
10476	84202	91.805556663983	2
10476	84752	92.308252654939	4
10476	84864	92.411873482837	0
10476	85203	92.720108423257	2
10476	86315	93.53435117244	7
10476	86543	93.724258891184	10
10476	86552	93.732702882777	14
10476	87072	94.141876556246	4
10476	88436	95.297723619905	6
10476	89835	96.497723619905	11
10476	90294	96.897939581332	3
10476	90345	96.954946582379	3
10476	90554	97.104919857213	1
10476	90599	97.15739695072	3
10476	90959	97.462887068901	4
10476	91286	97.714013801969	5
10476	91882	98.123510642334	5
10476	93122	99.023510642334	8
10476	93524	99.381376786647	2
10476	93585	99.425339288761	4
10476	93901	99.686638633465	2
10476	94038	99.786738733465	1
10476	94561	100.186738733465	4
10476	94579	100.189315657875	0
10476	95474	100.777405842169	3
10476	97729	102.600847278535	2
10476	98241	103.000847278535	4
10476	98771	103.417530671122	3
10476	99374	103.923822266778	4
10476	99380	103.926316808435	4
10476	99632	104.131539217988	1
10476	99969	104.432062104813	3
10476	100405	104.732062104813	2
10476	100917	105.137511602685	3
10476	101190	105.341228372507	2
10476	101457	105.541228372507	1
10476	102128	106.048725764965	5
10476	102573	106.448725764965	4
10476	102868	106.648998104337	1
10476	104296	107.852079311044	12
10476	104318	107.85766063718	0
10476	104747	108.158154280941	2
10476	105275	108.559312510745	3
10476	105380	108.665323797582	3
10476	105751	108.9728287218	3
10476	106087	109.2728287218	2
10476	106480	109.581636264409	2
10476	106746	109.831486995652	2
10476	106766	109.851171074753	2
10476	107258	110.260851604841	5
10476	107493	110.460851604841	1
10476	107759	110.670735845754	1
10476	107954	110.874497590341	1
10476	108034	110.953346416075	0
10476	108587	111.476942215187	5
10476	108598	111.482614695726	5
10476	108747	111.582714795726	1
10476	109331	112.082714795726	5
10476	109589	112.289950030515	1
10476	110152	112.693858134959	3
10476	111347	113.700242128639	4
10476	111821	114.102891029775	15
10476	111902	114.200588034024	4
10476	112161	114.401802406154	3
10476	112169	114.404466301817	1
10476	112171	114.404555564998	2
10476	112667	114.804655664998	5
10476	114851	116.504655664998	20
10476	115318	116.823963609629	2
10476	115748	117.229368635029	3
10476	116019	117.436234029662	2
10476	116812	118.036234029662	5
10476	117572	118.643630925589	5
10476	117921	118.945610909321	3
10476	118505	119.445610909321	4
10476	118795	119.652817439681	1
10476	119103	119.855401365439	1
10476	120383	120.860066385747	11
10476	120406	120.879483144788	6
10476	121102	121.483297179256	7
10476	121736	121.983297179256	4
10476	122019	122.217898438866	3
10476	122373	122.52718569998	3
10476	123493	123.42718569998	10
10476	123859	123.630621416647	2
10476	125103	124.630621416647	9
10476	126263	125.731527979994	12
10476	126476	125.933060278928	1
10476	126857	126.33606964946	3
10476	127495	126.943244470171	6
10476	127835	127.262426042429	2
10476	128539	127.768963913019	4
10476	129707	128.678434895024	11
10476	130104	128.978434895024	2
10476	130788	129.450070969449	2
10476	131732	130.306219727489	5
10476	132070	130.706219727489	3
10476	133675	132.107703138108	14
10476	134106	132.512146262815	3
10476	134361	132.718950464417	1
10476	134759	133.05911457007	6
10476	135848	133.8659740502	10
10476	135980	133.9659740502	1
10476	136340	134.255091479238	0
10476	137005	134.855091479238	5
10476	137210	135.064249608508	1
10476	137233	135.083947350601	1
10476	137433	135.266464172204	1
10476	137502	135.299774057543	0
10477	210	20.2000001	0.75
10477	815	21.2000001	-0.125
10477	1293	21.606172498378	0.625
10477	1307	21.608633186804	0.625
10477	1419	21.701801346658	0.625
10477	1933	22.102131725868	0.375
10477	2258	22.302131725868	0.875
10477	3286	23.011845920173	0.125
10477	3635	23.320463432218	0.75
10477	3937	23.529468071318	0.875
10477	4047	23.629697682853	0.875
10477	4165	23.727499661988	0.5
10477	4188	23.731440527179	0.875
10477	4442	23.94434611954	0.75
10477	4576	24.048490733014	0.875
10477	5563	24.943006335249	0.5
10477	6298	25.543006335249	0.25
10477	7178	26.155301913817	0.375
10477	7440	26.338394785281	0.125
10477	7580	26.457468682443	0.625
10477	7680	26.538622526249	0.75
10477	8024	26.844161532326	0.625
10477	8336	27.144161532326	0.75
10477	9377	28.044261632326	-0.125
10477	9759	28.344261632326	0.75
10477	10500	28.952041778843	0.25
10477	10806	29.152380452578	0.625
10477	11191	29.457303261331	0.75
10477	11885	30.0666926269	0.375
10477	12235	30.368307351893	0.75
10477	12251	30.372114581124	1
10477	13244	31.19815862157	0.5
10477	13819	31.69815862157	0.5
10477	14047	31.902935417912	0.875
10477	14355	32.208893695702	0.75
10477	14699	32.515204877254	0.625
10477	15110	32.915204877254	0.625
10477	15328	33.119669409413	0.75
10477	15829	33.519669409413	0.625
10477	16474	34.129620783524	0.375
10477	16959	34.531765974361	0.625
10477	18216	35.532962272289	-0.25
10477	18669	35.939112762576	0.625
10477	18721	35.949725245017	0.25
10477	18972	36.151424826768	0.75
10477	19153	36.351424826768	0.875
10477	19503	36.654620739449	0.75
10477	20325	37.363189348186	0.125
10477	20722	37.673164168217	0.75
10477	20991	37.88304827052	0.875
10477	21579	38.398832622795	0.5
10477	21840	38.600187255205	0.875
10477	22460	39.022941549368	0.625
10477	22631	39.169733498701	0.625
10477	22783	39.279011040664	-0.5
10477	23423	39.787124555733	0.5
10477	23570	39.926859886985	0
10477	23691	40.032258029417	0.875
10477	24012	40.332258029417	0.75
10477	25000	41.241581625407	-0.125
10477	25353	41.494603128899	0
10477	25474	41.594703228899	0.875
10477	25743	41.794703228899	0.875
10477	26733	42.71113550338	0.25
10477	27048	43.01123560338	0.625
10477	27671	43.589804469753	0.875
10477	28340	44.093429153289	0.375
10477	28873	44.493429153289	0.625
10477	29382	44.895338440551	0.625
10477	29815	45.305315331788	0.625
10477	30236	45.708809639417	0.625
10477	30907	46.315840849239	0.125
10477	30928	46.325792099326	0.375
10477	30945	46.330402107327	-0.5
10477	31852	47.134607371977	0
10477	32515	47.734607371977	0.375
10477	32930	48.044046697086	0.625
10477	33275	48.328290988976	0.5
10477	33539	48.532295678335	0.875
10477	33801	48.73823755447	0.75
10477	33820	48.746612781831	0.375
10477	34982	49.847198899368	-0.5
10477	35599	50.447198899368	0.375
10477	36188	50.84892132099	0.625
10477	36329	50.959376761527	0.625
10477	36444	51.057427423235	0.875
10477	36876	51.362127976775	0.625
10477	36891	51.367146801123	0.75
10477	37247	51.667468164324	0.75
10477	37488	51.867568264324	0.75
10477	38094	52.367568264324	0.5
10477	38771	52.868419990855	0.375
10477	39030	53.106101147774	0.625
10477	39318	53.368697388443	0.5
10477	39848	53.770509036839	0.5
10477	41320	54.970509036839	-0.5
10477	41790	55.375866340134	0.625
10477	42419	55.98296824005	0.25
10477	43287	56.683826910569	0.25
10477	43416	56.783916503489	0.125
10477	43556	56.89254498209	0.875
10477	44056	57.286553307876	0.25
10477	44332	57.486892613817	0.875
10477	44746	57.789627089121	0.625
10477	45149	58.189627089121	0.625
10477	45302	58.395507183617	0.875
10477	45431	58.497538396733	0.875
10477	45779	58.797538396733	0.75
10477	46068	59.046990623826	1
10477	46959	59.725615109292	0.375
10477	47493	60.125715209292	0.5
10477	47693	60.325715209292	0.875
10477	47963	60.534769761452	0.875
10477	48478	60.938509301612	0.625
10477	48500	60.945427521396	0.75
10477	49045	61.454447495165	0.5
10477	49048	61.455276029752	0.5
10477	49152	61.561717537453	0.875
10477	49548	61.961717537453	0.625
10477	50101	62.468414979195	0.5
10477	50312	62.66131367195	0.625
10477	50349	62.676654793906	0.875
10477	51167	63.278920138693	0.125
10477	51450	63.478920138693	0.875
10477	51683	63.679020238693	0.75
10477	52454	64.344319535469	0.625
10477	52610	64.479020238693	0.125
10477	52831	64.653454721547	0.625
10477	52848	64.666330088979	0.625
10477	54515	66.170431193099	-1
10477	55764	67.370431193099	-0.5
10477	56356	67.878209547367	0.5
10477	56545	68.080521768223	0.875
10477	56994	68.490402398293	0.5
10477	57409	68.890402398293	0.625
10477	58130	69.491945507779	0.375
10477	59677	70.897477206216	-0.875
10477	60135	71.416335723037	0.625
10477	60236	71.502141198202	0.375
10477	60455	71.717827577341	0.75
10477	60466	71.720224797984	0.875
10477	60477	71.730759217189	0.875
10477	60739	71.936654360476	0.75
10477	61026	72.236654360476	0.75
10477	61311	72.443333362094	0.875
10477	61917	72.954789557608	0.375
10477	62249	73.238119833881	0.25
10477	62851	73.748061516653	0.375
10477	63430	74.348061516653	0.375
10477	64180	74.951876443568	0.375
10477	64413	75.194980279058	0.5
10477	64681	75.452383316817	0.5
10477	64740	75.504818140161	0.625
10477	65416	76.106354521899	0.375
10477	65438	76.127522743651	0
10477	65941	76.536877881673	0.5
10477	66738	77.236877881673	0.25
10477	67128	77.542810565375	0.625
10477	67503	77.846105278838	0.625
10477	68173	78.446105278838	0.125
10477	68433	78.651800700892	0.875
10477	68968	79.096120127668	0.875
10477	69342	79.400797948246	0.75
10477	69770	79.710552005191	0.625
10477	70044	79.910552005191	0.875
10477	70753	80.412593295861	0.375
10477	71157	80.716767924775	0.75
10477	71360	80.901501063363	0.75
10477	71660	81.204118911666	0.75
10477	71816	81.329486766776	0.25
10477	71980	81.509922321952	0.75
10477	73011	82.414390721661	-0.25
10477	74670	83.98627134733	-0.125
10477	74942	84.214390721661	-1.25
10477	75433	84.62112984697	0.5
10477	75667	84.82112984697	0.875
10477	76162	85.230497807253	0.5
10477	76285	85.33759724918	0.875
10477	77103	86.03759724918	0.25
10477	77278	86.174190429898	0.625
10477	77728	86.477566217313	0.625
10477	78190	86.877566217313	0.625
10477	78485	87.182458559617	0.75
10477	79013	87.785656840717	0.375
10477	79214	87.98296124979	0.625
10477	79361	88.094388910752	0.75
10477	79646	88.299005538332	0.75
10477	80276	88.799005538332	0.375
10477	81043	89.402048069561	0
10477	81189	89.502148169561	0.875
10477	82028	90.202148169561	0.25
10477	82290	90.403771120526	0.875
10477	82519	90.608685579013	0.875
10477	82808	90.809401997053	0.75
10477	83081	91.009401997053	0.875
10477	83877	91.601690507212	0.75
10477	84202	91.805556663983	0.75
10477	84752	92.308252654939	0.5
10477	84864	92.411873482837	1
10477	85203	92.720108423257	0.75
10477	86315	93.53435117244	0.125
10477	86543	93.724258891184	-0.25
10477	86552	93.732702882777	-0.75
10477	87072	94.141876556246	0.5
10477	88436	95.297723619905	0.25
10477	89835	96.497723619905	-0.375
10477	90294	96.897939581332	0.625
10477	90345	96.954946582379	0.625
10477	90554	97.104919857213	0.875
10477	90599	97.15739695072	0.625
10477	90959	97.462887068901	0.5
10477	91286	97.714013801969	0.44444441795349
10477	91882	98.123510642334	0.375
10477	93122	99.023510642334	0
10477	93524	99.381376786647	0.75
10477	93585	99.425339288761	0.5
10477	93901	99.686638633465	0.75
10477	94038	99.786738733465	0.875
10477	94561	100.186738733465	0.5
10477	94579	100.189315657875	1
10477	95474	100.777405842169	0.625
10477	97729	102.600847278535	0.75
10477	98241	103.000847278535	0.5
10477	98771	103.417530671122	0.625
10477	99374	103.923822266778	0.5
10477	99380	103.926316808435	0.5
10477	99632	104.131539217988	0.875
10477	99969	104.432062104813	0.625
10477	100405	104.732062104813	0.75
10477	100917	105.137511602685	0.625
10477	101190	105.341228372507	0.75
10477	101457	105.541228372507	0.875
10477	102128	106.048725764965	0.375
10477	102573	106.448725764965	0.5
10477	102868	106.648998104337	0.875
10477	104296	107.852079311044	-0.5
10477	104318	107.85766063718	1
10477	104747	108.158154280941	0.75
10477	105275	108.559312510745	0.625
10477	105380	108.665323797582	0.625
10477	105751	108.9728287218	0.625
10477	106087	109.2728287218	0.75
10477	106480	109.581636264409	0.75
10477	106746	109.831486995652	0.75
10477	106766	109.851171074753	0.75
10477	107258	110.260851604841	0.375
10477	107493	110.460851604841	0.875
10477	107759	110.670735845754	0.875
10477	107954	110.874497590341	0.875
10477	108034	110.953346416075	1
10477	108587	111.476942215187	0.375
10477	108598	111.482614695726	0.375
10477	108747	111.582714795726	0.875
10477	109331	112.082714795726	0.375
10477	109589	112.289950030515	0.875
10477	110152	112.693858134959	0.625
10477	111347	113.700242128639	0.5
10477	111821	114.102891029775	-0.875
10477	111902	114.200588034024	0.5
10477	112161	114.401802406154	0.625
10477	112169	114.404466301817	0.875
10477	112171	114.404555564998	0.75
10477	112667	114.804655664998	0.375
10477	114851	116.504655664998	-1.5
10477	115318	116.823963609629	0.75
10477	115748	117.229368635029	0.625
10477	116019	117.436234029662	0.75
10477	116812	118.036234029662	0.375
10477	117572	118.643630925589	0.375
10477	117921	118.945610909321	0.625
10477	118505	119.445610909321	0.5
10477	118795	119.652817439681	0.875
10477	119103	119.855401365439	0.875
10477	120383	120.860066385747	-0.375
10477	120406	120.879483144788	0.25
10477	121102	121.483297179256	0.125
10477	121736	121.983297179256	0.5
10477	122019	122.217898438866	0.625
10477	122373	122.52718569998	0.625
10477	123493	123.42718569998	-0.25
10477	123859	123.630621416647	0.75
10477	125103	124.630621416647	-0.125
10477	126263	125.731527979994	-0.5
10477	126476	125.933060278928	0.875
10477	126857	126.33606964946	0.625
10477	127495	126.943244470171	0.25
10477	127835	127.262426042429	0.75
10477	128539	127.768963913019	0.5
10477	129707	128.678434895024	-0.375
10477	130104	128.978434895024	0.75
10477	130788	129.450070969449	0.75
10477	131732	130.306219727489	0.375
10477	132070	130.706219727489	0.625
10477	133675	132.107703138108	-0.75
10477	134106	132.512146262815	0.625
10477	134361	132.718950464417	0.875
10477	134759	133.05911457007	0.25
10477	135848	133.8659740502	-0.25
10477	135980	133.9659740502	0.875
10477	136340	134.255091479238	1
10477	137005	134.855091479238	0.375
10477	137210	135.064249608508	0.875
10477	137233	135.083947350601	0.875
10477	137433	135.266464172204	0.875
10477	137502	135.299774057543	1
10478	210	20.2000001	0.2
10478	815	21.2000001	1
10478	1293	21.606172498378	0.4
10478	1307	21.608633186804	0.4
10478	1419	21.701801346658	0.4
10478	1933	22.102131725868	0.4
10478	2258	22.302131725868	0.2
10478	3286	23.011845920173	0.7
10478	3635	23.320463432218	0.3
10478	3937	23.529468071318	0.2
10478	4047	23.629697682853	0.2
10478	4165	23.727499661988	0.4
10478	4188	23.731440527179	0.2
10478	4442	23.94434611954	0.3
10478	4576	24.048490733014	0.1
10478	5563	24.943006335249	0.4
10478	6298	25.543006335249	0.6
10478	7178	26.155301913817	0.6
10478	7440	26.338394785281	0.7
10478	7580	26.457468682443	0.3
10478	7680	26.538622526249	0.2
10478	8024	26.844161532326	0.3
10478	8336	27.144161532326	0.3
10478	9377	28.044261632326	0.9
10478	9759	28.344261632326	0.3
10478	10500	28.952041778843	0.6
10478	10806	29.152380452578	0.2
10478	11191	29.457303261331	0.3
10478	11885	30.0666926269	0.6
10478	12235	30.368307351893	0.3
10478	12251	30.372114581124	0
10478	13244	31.19815862157	0.4
10478	13819	31.69815862157	0.5
10478	14047	31.902935417912	0.2
10478	14355	32.208893695702	0.3
10478	14699	32.515204877254	0.3
10478	15110	32.915204877254	0.4
10478	15328	33.119669409413	0.2
10478	15829	33.519669409413	0.4
10478	16474	34.129620783524	0.6
10478	16959	34.531765974361	0.4
10478	18216	35.532962272289	1
10478	18669	35.939112762576	0.4
10478	18721	35.949725245017	0.7
10478	18972	36.151424826768	0.2
10478	19153	36.351424826768	0.2
10478	19503	36.654620739449	0.3
10478	20325	37.363189348186	0.7
10478	20722	37.673164168217	0.3
10478	20991	37.88304827052	0.2
10478	21579	38.398832622795	0.5
10478	21840	38.600187255205	0.2
10478	22460	39.022941549368	0.4
10478	22631	39.169733498701	0.3
10478	22783	39.279011040664	1.2
10478	23423	39.787124555733	0.5
10478	23570	39.926859886985	0.9
10478	23691	40.032258029417	0.1
10478	24012	40.332258029417	0.3
10478	25000	41.241581625407	0.9
10478	25353	41.494603128899	0.8
10478	25474	41.594703228899	0.1
10478	25743	41.794703228899	0.2
10478	26733	42.71113550338	0.7
10478	27048	43.01123560338	0.3
10478	27671	43.589804469753	0.2
10478	28340	44.093429153289	0.5
10478	28873	44.493429153289	0.4
10478	29382	44.895338440551	0.4
10478	29815	45.305315331788	0.4
10478	30236	45.708809639417	0.4
10478	30907	46.315840849239	0.6
10478	30928	46.325792099326	0.6
10478	30945	46.330402107327	1.2
10478	31852	47.134607371977	0.8
10478	32515	47.734607371977	0.6
10478	32930	48.044046697086	0.3
10478	33275	48.328290988976	0.5
10478	33539	48.532295678335	0.2
10478	33801	48.73823755447	0.3
10478	33820	48.746612781831	0.6
10478	34982	49.847198899368	1.1
10478	35599	50.447198899368	0.6
10478	36188	50.84892132099	0.4
10478	36329	50.959376761527	0.4
10478	36444	51.057427423235	0.2
10478	36876	51.362127976775	0.3
10478	36891	51.367146801123	0.3
10478	37247	51.667468164324	0.3
10478	37488	51.867568264324	0.2
10478	38094	52.367568264324	0.5
10478	38771	52.868419990855	0.5
10478	39030	53.106101147774	0.4
10478	39318	53.368697388443	0.5
10478	39848	53.770509036839	0.4
10478	41320	54.970509036839	1.2
10478	41790	55.375866340134	0.4
10478	42419	55.98296824005	0.6
10478	43287	56.683826910569	0.7
10478	43416	56.783916503489	0.8
10478	43556	56.89254498209	0.2
10478	44056	57.286553307876	0.5
10478	44332	57.486892613817	0.2
10478	44746	57.789627089121	0.3
10478	45149	58.189627089121	0.4
10478	45302	58.395507183617	0.2
10478	45431	58.497538396733	0.1
10478	45779	58.797538396733	0.3
10478	46068	59.046990623826	0
10478	46959	59.725615109292	0.6
10478	47493	60.125715209292	0.4
10478	47693	60.325715209292	0.2
10478	47963	60.534769761452	0.2
10478	48478	60.938509301612	0.4
10478	48500	60.945427521396	0.3
10478	49045	61.454447495165	0.5
10478	49048	61.455276029752	0.5
10478	49152	61.561717537453	0.1
10478	49548	61.961717537453	0.4
10478	50101	62.468414979195	0.5
10478	50312	62.66131367195	0.4
10478	50349	62.676654793906	0.2
10478	51167	63.278920138693	0.6
10478	51450	63.478920138693	0.2